<?xml version="1.0" encoding="UTF-8"?>

<!-- generated on 2022-04-17 21:39:04 by Eclipse SUMO GUI Version 1.12.0
<configuration xmlns:xsi="http://www.w3.org/2001/XMLSchema-instance" xsi:noNamespaceSchemaLocation="http://sumo.dlr.de/xsd/sumoConfiguration.xsd">

    <input>
        <net-file value="D:\Repos\Kilis%201\kilis03.net.xml"/>
        <route-files value="D:\Repos\Kilis%201\kilis_03.rou.xml"/>
        <additional-files value="D:\Repos\Kilis%201\kilis03.det.xml"/>
    </input>

    <output>
        <tripinfo-output value="D:\Repos\Kilis%201\my_intersection.trips.xml"/>
    </output>

    <time>
        <begin value="000"/>
        <end value="50000"/>
    </time>

    <processing>
        <step-method.ballistic value="true"/>
        <time-to-teleport value="-1"/>
    </processing>

    <report>
        <verbose value="true"/>
        <log value="D:\Repos\Kilis%201\my_out.xml"/>
        <no-step-log value="true"/>
    </report>

</configuration>
-->

<tripinfos xmlns:xsi="http://www.w3.org/2001/XMLSchema-instance" xsi:noNamespaceSchemaLocation="http://sumo.dlr.de/xsd/tripinfo_file.xsd">
    <tripinfo id="5.0" depart="8.00" departLane="1_0" departPos="5.10" departSpeed="0.00" departDelay="0.09" arrival="28.00" arrivalLane="33_0" arrivalPos="75.11" arrivalSpeed="14.12" duration="20.00" routeLength="216.66" waitingTime="0.00" waitingCount="0" stopTime="0.00" timeLoss="3.90" rerouteNo="0" devices="tripinfo_5.0" vType="DEFAULT_VEHTYPE" speedFactor="1.06" vaporized=""/>
    <tripinfo id="3.0" depart="11.00" departLane="1_0" departPos="5.10" departSpeed="0.00" departDelay="1.26" arrival="36.00" arrivalLane="22_0" arrivalPos="109.59" arrivalSpeed="11.81" duration="25.00" routeLength="259.48" waitingTime="0.00" waitingCount="0" stopTime="0.00" timeLoss="3.83" rerouteNo="0" devices="tripinfo_3.0" vType="DEFAULT_VEHTYPE" speedFactor="0.94" vaporized=""/>
    <tripinfo id="15.0" depart="13.00" departLane="3_0" departPos="5.10" departSpeed="0.00" departDelay="0.21" arrival="62.00" arrivalLane="22_0" arrivalPos="109.59" arrivalSpeed="14.60" duration="49.00" routeLength="185.88" waitingTime="27.00" waitingCount="1" stopTime="0.00" timeLoss="35.87" rerouteNo="0" devices="tripinfo_15.0" vType="DEFAULT_VEHTYPE" speedFactor="1.08" vaporized=""/>
    <tripinfo id="15.1" depart="19.00" departLane="3_0" departPos="5.10" departSpeed="0.00" departDelay="0.99" arrival="64.00" arrivalLane="22_0" arrivalPos="109.59" arrivalSpeed="13.36" duration="45.00" routeLength="185.88" waitingTime="23.00" waitingCount="1" stopTime="0.00" timeLoss="31.35" rerouteNo="0" devices="tripinfo_15.1" vType="DEFAULT_VEHTYPE" speedFactor="1.03" vaporized=""/>
    <tripinfo id="13.0" depart="26.00" departLane="3_0" departPos="5.10" departSpeed="0.00" departDelay="0.33" arrival="65.00" arrivalLane="11_2" arrivalPos="126.52" arrivalSpeed="14.21" duration="39.00" routeLength="225.04" waitingTime="13.00" waitingCount="1" stopTime="0.00" timeLoss="22.59" rerouteNo="0" devices="tripinfo_13.0" vType="DEFAULT_VEHTYPE" speedFactor="1.05" vaporized=""/>
    <tripinfo id="14.0" depart="11.00" departLane="3_0" departPos="5.10" departSpeed="0.00" departDelay="0.69" arrival="66.00" arrivalLane="11_1" arrivalPos="126.52" arrivalSpeed="13.33" duration="55.00" routeLength="227.87" waitingTime="29.00" waitingCount="1" stopTime="0.00" timeLoss="37.85" rerouteNo="0" devices="tripinfo_14.0" vType="DEFAULT_VEHTYPE" speedFactor="1.01" vaporized=""/>
    <tripinfo id="13.1" depart="34.00" departLane="3_0" departPos="5.10" departSpeed="0.00" departDelay="0.35" arrival="68.00" arrivalLane="11_2" arrivalPos="126.52" arrivalSpeed="12.84" duration="34.00" routeLength="225.04" waitingTime="7.00" waitingCount="1" stopTime="0.00" timeLoss="15.74" rerouteNo="0" devices="tripinfo_13.1" vType="DEFAULT_VEHTYPE" speedFactor="0.94" vaporized=""/>
    <tripinfo id="14.1" depart="28.00" departLane="3_0" departPos="5.10" departSpeed="0.00" departDelay="0.64" arrival="69.00" arrivalLane="11_1" arrivalPos="126.52" arrivalSpeed="11.89" duration="41.00" routeLength="227.87" waitingTime="12.00" waitingCount="1" stopTime="0.00" timeLoss="21.95" rerouteNo="0" devices="tripinfo_14.1" vType="DEFAULT_VEHTYPE" speedFactor="0.89" vaporized=""/>
    <tripinfo id="14.2" depart="36.00" departLane="3_0" departPos="5.10" departSpeed="0.00" departDelay="0.14" arrival="72.00" arrivalLane="11_1" arrivalPos="126.52" arrivalSpeed="10.87" duration="36.00" routeLength="227.87" waitingTime="7.00" waitingCount="1" stopTime="0.00" timeLoss="15.93" rerouteNo="0" devices="tripinfo_14.2" vType="DEFAULT_VEHTYPE" speedFactor="0.86" vaporized=""/>
    <tripinfo id="14.3" depart="70.00" departLane="3_0" departPos="5.10" departSpeed="0.00" departDelay="0.52" arrival="92.00" arrivalLane="11_1" arrivalPos="126.52" arrivalSpeed="13.72" duration="22.00" routeLength="227.87" waitingTime="0.00" waitingCount="0" stopTime="0.00" timeLoss="4.09" rerouteNo="0" devices="tripinfo_14.3" vType="DEFAULT_VEHTYPE" speedFactor="0.99" vaporized=""/>
    <tripinfo id="6.0" depart="19.00" departLane="1_0" departPos="5.10" departSpeed="0.00" departDelay="0.61" arrival="95.00" arrivalLane="33_0" arrivalPos="75.11" arrivalSpeed="10.45" duration="76.00" routeLength="216.66" waitingTime="48.00" waitingCount="1" stopTime="0.00" timeLoss="56.36" rerouteNo="0" devices="tripinfo_6.0" vType="DEFAULT_VEHTYPE" speedFactor="0.83" vaporized=""/>
    <tripinfo id="5.1" depart="56.00" departLane="1_0" departPos="5.10" departSpeed="0.00" departDelay="0.35" arrival="97.00" arrivalLane="33_0" arrivalPos="75.11" arrivalSpeed="12.79" duration="41.00" routeLength="216.66" waitingTime="15.00" waitingCount="1" stopTime="0.00" timeLoss="25.12" rerouteNo="0" devices="tripinfo_5.1" vType="DEFAULT_VEHTYPE" speedFactor="1.05" vaporized=""/>
    <tripinfo id="8.0" depart="38.00" departLane="2_0" departPos="5.10" departSpeed="0.00" departDelay="0.31" arrival="98.00" arrivalLane="11_0" arrivalPos="126.52" arrivalSpeed="14.04" duration="60.00" routeLength="259.36" waitingTime="32.00" waitingCount="1" stopTime="0.00" timeLoss="41.67" rerouteNo="0" devices="tripinfo_8.0" vType="DEFAULT_VEHTYPE" speedFactor="1.09" vaporized=""/>
    <tripinfo id="7.0" depart="53.00" departLane="2_0" departPos="5.10" departSpeed="0.00" departDelay="0.64" arrival="99.00" arrivalLane="11_1" arrivalPos="126.52" arrivalSpeed="14.01" duration="46.00" routeLength="259.36" waitingTime="18.00" waitingCount="1" stopTime="0.00" timeLoss="26.60" rerouteNo="0" devices="tripinfo_7.0" vType="DEFAULT_VEHTYPE" speedFactor="1.03" vaporized=""/>
    <tripinfo id="5.2" depart="100.00" departLane="1_0" departPos="5.10" departSpeed="0.00" departDelay="0.36" arrival="120.00" arrivalLane="33_0" arrivalPos="75.11" arrivalSpeed="12.88" duration="20.00" routeLength="216.66" waitingTime="0.00" waitingCount="0" stopTime="0.00" timeLoss="3.89" rerouteNo="0" devices="tripinfo_5.2" vType="DEFAULT_VEHTYPE" speedFactor="1.02" vaporized=""/>
    <tripinfo id="9.0" depart="69.00" departLane="2_0" departPos="5.10" departSpeed="0.00" departDelay="0.52" arrival="128.00" arrivalLane="22_2" arrivalPos="109.59" arrivalSpeed="14.89" duration="59.00" routeLength="218.90" waitingTime="35.00" waitingCount="1" stopTime="0.00" timeLoss="43.99" rerouteNo="0" devices="tripinfo_9.0" vType="DEFAULT_VEHTYPE" speedFactor="1.12" vaporized=""/>
    <tripinfo id="1.0" depart="76.00" departLane="1_0" departPos="5.10" departSpeed="0.00" departDelay="0.82" arrival="131.00" arrivalLane="11_2" arrivalPos="126.52" arrivalSpeed="11.17" duration="55.00" routeLength="252.76" waitingTime="26.00" waitingCount="1" stopTime="0.00" timeLoss="33.07" rerouteNo="0" devices="tripinfo_1.0" vType="DEFAULT_VEHTYPE" speedFactor="0.88" vaporized=""/>
    <tripinfo id="14.4" depart="73.00" departLane="3_0" departPos="5.10" departSpeed="0.00" departDelay="0.32" arrival="150.00" arrivalLane="11_2" arrivalPos="126.52" arrivalSpeed="11.65" duration="77.00" routeLength="225.04" waitingTime="50.00" waitingCount="1" stopTime="0.00" timeLoss="59.13" rerouteNo="0" devices="tripinfo_14.4" vType="DEFAULT_VEHTYPE" speedFactor="0.93" vaporized=""/>
    <tripinfo id="13.2" depart="78.00" departLane="3_0" departPos="5.10" departSpeed="0.00" departDelay="0.14" arrival="150.00" arrivalLane="11_1" arrivalPos="126.52" arrivalSpeed="12.48" duration="72.00" routeLength="227.87" waitingTime="46.00" waitingCount="1" stopTime="0.00" timeLoss="54.07" rerouteNo="0" devices="tripinfo_13.2" vType="DEFAULT_VEHTYPE" speedFactor="0.94" vaporized=""/>
    <tripinfo id="14.5" depart="79.00" departLane="3_0" departPos="5.10" departSpeed="0.00" departDelay="0.44" arrival="152.00" arrivalLane="11_1" arrivalPos="126.52" arrivalSpeed="11.87" duration="73.00" routeLength="227.87" waitingTime="44.00" waitingCount="1" stopTime="0.00" timeLoss="54.96" rerouteNo="0" devices="tripinfo_14.5" vType="DEFAULT_VEHTYPE" speedFactor="0.94" vaporized=""/>
    <tripinfo id="14.6" depart="99.00" departLane="3_0" departPos="5.10" departSpeed="0.00" departDelay="0.87" arrival="152.00" arrivalLane="11_2" arrivalPos="126.52" arrivalSpeed="15.81" duration="53.00" routeLength="225.04" waitingTime="25.00" waitingCount="1" stopTime="0.00" timeLoss="37.94" rerouteNo="0" devices="tripinfo_14.6" vType="DEFAULT_VEHTYPE" speedFactor="1.16" vaporized=""/>
    <tripinfo id="14.7" depart="105.00" departLane="3_0" departPos="5.10" departSpeed="0.00" departDelay="0.50" arrival="154.00" arrivalLane="11_1" arrivalPos="126.52" arrivalSpeed="13.91" duration="49.00" routeLength="227.87" waitingTime="22.00" waitingCount="1" stopTime="0.00" timeLoss="31.98" rerouteNo="0" devices="tripinfo_14.7" vType="DEFAULT_VEHTYPE" speedFactor="1.01" vaporized=""/>
    <tripinfo id="13.3" depart="143.00" departLane="3_0" departPos="5.10" departSpeed="0.00" departDelay="0.62" arrival="166.00" arrivalLane="11_1" arrivalPos="126.52" arrivalSpeed="11.14" duration="23.00" routeLength="227.87" waitingTime="0.00" waitingCount="0" stopTime="0.00" timeLoss="2.86" rerouteNo="0" devices="tripinfo_13.3" vType="DEFAULT_VEHTYPE" speedFactor="0.87" vaporized=""/>
    <tripinfo id="13.4" depart="144.00" departLane="3_0" departPos="5.10" departSpeed="0.00" departDelay="1.61" arrival="168.00" arrivalLane="11_1" arrivalPos="126.52" arrivalSpeed="12.56" duration="24.00" routeLength="227.87" waitingTime="1.00" waitingCount="1" stopTime="0.00" timeLoss="5.43" rerouteNo="0" devices="tripinfo_13.4" vType="DEFAULT_VEHTYPE" speedFactor="0.92" vaporized=""/>
    <tripinfo id="13.5" depart="151.00" departLane="3_0" departPos="5.10" departSpeed="0.00" departDelay="0.87" arrival="170.00" arrivalLane="11_1" arrivalPos="126.52" arrivalSpeed="15.09" duration="19.00" routeLength="227.87" waitingTime="0.00" waitingCount="0" stopTime="0.00" timeLoss="3.90" rerouteNo="0" devices="tripinfo_13.5" vType="DEFAULT_VEHTYPE" speedFactor="1.13" vaporized=""/>
    <tripinfo id="13.6" depart="153.00" departLane="3_0" departPos="5.10" departSpeed="0.00" departDelay="1.82" arrival="176.00" arrivalLane="11_1" arrivalPos="126.52" arrivalSpeed="12.39" duration="23.00" routeLength="227.87" waitingTime="0.00" waitingCount="0" stopTime="0.00" timeLoss="4.08" rerouteNo="0" devices="tripinfo_13.6" vType="DEFAULT_VEHTYPE" speedFactor="0.93" vaporized=""/>
    <tripinfo id="5.3" depart="116.00" departLane="1_0" departPos="5.10" departSpeed="0.00" departDelay="0.42" arrival="178.00" arrivalLane="33_0" arrivalPos="75.11" arrivalSpeed="12.96" duration="62.00" routeLength="216.66" waitingTime="37.00" waitingCount="1" stopTime="0.00" timeLoss="45.52" rerouteNo="0" devices="tripinfo_5.3" vType="DEFAULT_VEHTYPE" speedFactor="0.98" vaporized=""/>
    <tripinfo id="3.1" depart="131.00" departLane="1_0" departPos="5.10" departSpeed="0.00" departDelay="0.99" arrival="182.00" arrivalLane="22_1" arrivalPos="109.59" arrivalSpeed="11.96" duration="51.00" routeLength="259.48" waitingTime="21.00" waitingCount="1" stopTime="0.00" timeLoss="29.56" rerouteNo="0" devices="tripinfo_3.1" vType="DEFAULT_VEHTYPE" speedFactor="0.89" vaporized=""/>
    <tripinfo id="7.1" depart="163.00" departLane="2_0" departPos="5.10" departSpeed="0.00" departDelay="0.94" arrival="184.00" arrivalLane="11_0" arrivalPos="126.52" arrivalSpeed="16.33" duration="21.00" routeLength="259.36" waitingTime="0.00" waitingCount="0" stopTime="0.00" timeLoss="4.00" rerouteNo="0" devices="tripinfo_7.1" vType="DEFAULT_VEHTYPE" speedFactor="1.18" vaporized=""/>
    <tripinfo id="11.0" depart="148.00" departLane="2_0" departPos="5.10" departSpeed="0.00" departDelay="0.10" arrival="213.00" arrivalLane="33_1" arrivalPos="75.11" arrivalSpeed="12.23" duration="65.00" routeLength="217.27" waitingTime="39.00" waitingCount="1" stopTime="0.00" timeLoss="47.59" rerouteNo="0" devices="tripinfo_11.0" vType="DEFAULT_VEHTYPE" speedFactor="0.95" vaporized=""/>
    <tripinfo id="1.1" depart="141.00" departLane="1_0" departPos="5.10" departSpeed="0.00" departDelay="0.41" arrival="215.00" arrivalLane="11_2" arrivalPos="126.52" arrivalSpeed="10.18" duration="74.00" routeLength="252.76" waitingTime="44.00" waitingCount="1" stopTime="0.00" timeLoss="51.49" rerouteNo="0" devices="tripinfo_1.1" vType="DEFAULT_VEHTYPE" speedFactor="0.83" vaporized=""/>
    <tripinfo id="13.7" depart="164.00" departLane="3_0" departPos="5.10" departSpeed="0.00" departDelay="0.98" arrival="232.00" arrivalLane="11_1" arrivalPos="126.52" arrivalSpeed="15.95" duration="68.00" routeLength="227.87" waitingTime="44.00" waitingCount="1" stopTime="0.00" timeLoss="53.09" rerouteNo="0" devices="tripinfo_13.7" vType="DEFAULT_VEHTYPE" speedFactor="1.15" vaporized=""/>
    <tripinfo id="14.8" depart="169.00" departLane="3_0" departPos="5.10" departSpeed="0.00" departDelay="0.23" arrival="234.00" arrivalLane="11_2" arrivalPos="126.52" arrivalSpeed="12.71" duration="65.00" routeLength="225.04" waitingTime="38.00" waitingCount="1" stopTime="0.00" timeLoss="47.93" rerouteNo="0" devices="tripinfo_14.8" vType="DEFAULT_VEHTYPE" speedFactor="1.01" vaporized=""/>
    <tripinfo id="14.9" depart="187.00" departLane="3_0" departPos="5.10" departSpeed="0.00" departDelay="0.44" arrival="234.00" arrivalLane="11_1" arrivalPos="126.52" arrivalSpeed="15.43" duration="47.00" routeLength="227.87" waitingTime="23.00" waitingCount="1" stopTime="0.00" timeLoss="32.05" rerouteNo="0" devices="tripinfo_14.9" vType="DEFAULT_VEHTYPE" speedFactor="1.17" vaporized=""/>
    <tripinfo id="13.8" depart="201.00" departLane="3_0" departPos="5.10" departSpeed="0.00" departDelay="0.34" arrival="236.00" arrivalLane="11_2" arrivalPos="126.52" arrivalSpeed="13.78" duration="35.00" routeLength="225.04" waitingTime="8.00" waitingCount="1" stopTime="0.00" timeLoss="17.65" rerouteNo="0" devices="tripinfo_13.8" vType="DEFAULT_VEHTYPE" speedFactor="0.99" vaporized=""/>
    <tripinfo id="17.0" depart="239.00" departLane="3_0" departPos="5.10" departSpeed="0.00" departDelay="0.62" arrival="253.00" arrivalLane="33_2" arrivalPos="75.11" arrivalSpeed="14.30" duration="14.00" routeLength="149.94" waitingTime="0.00" waitingCount="0" stopTime="0.00" timeLoss="3.21" rerouteNo="0" devices="tripinfo_17.0" vType="DEFAULT_VEHTYPE" speedFactor="1.09" vaporized=""/>
    <tripinfo id="13.9" depart="236.00" departLane="3_0" departPos="5.10" departSpeed="0.00" departDelay="0.88" arrival="257.00" arrivalLane="11_1" arrivalPos="126.52" arrivalSpeed="13.07" duration="21.00" routeLength="227.87" waitingTime="0.00" waitingCount="0" stopTime="0.00" timeLoss="3.89" rerouteNo="0" devices="tripinfo_13.9" vType="DEFAULT_VEHTYPE" speedFactor="1.03" vaporized=""/>
    <tripinfo id="6.1" depart="211.00" departLane="1_0" departPos="5.10" departSpeed="0.00" departDelay="0.83" arrival="262.00" arrivalLane="33_0" arrivalPos="75.11" arrivalSpeed="12.78" duration="51.00" routeLength="216.66" waitingTime="25.00" waitingCount="1" stopTime="0.00" timeLoss="34.02" rerouteNo="0" devices="tripinfo_6.1" vType="DEFAULT_VEHTYPE" speedFactor="0.97" vaporized=""/>
    <tripinfo id="5.4" depart="223.00" departLane="1_0" departPos="5.10" departSpeed="0.00" departDelay="0.09" arrival="264.00" arrivalLane="33_0" arrivalPos="75.11" arrivalSpeed="15.38" duration="41.00" routeLength="216.66" waitingTime="15.00" waitingCount="1" stopTime="0.00" timeLoss="26.43" rerouteNo="0" devices="tripinfo_5.4" vType="DEFAULT_VEHTYPE" speedFactor="1.18" vaporized=""/>
    <tripinfo id="3.2" depart="231.00" departLane="1_0" departPos="5.10" departSpeed="0.00" departDelay="0.60" arrival="265.00" arrivalLane="22_1" arrivalPos="109.59" arrivalSpeed="14.60" duration="34.00" routeLength="259.48" waitingTime="6.00" waitingCount="1" stopTime="0.00" timeLoss="15.87" rerouteNo="0" devices="tripinfo_3.2" vType="DEFAULT_VEHTYPE" speedFactor="1.10" vaporized=""/>
    <tripinfo id="7.2" depart="204.00" departLane="2_0" departPos="5.10" departSpeed="0.00" departDelay="0.69" arrival="267.00" arrivalLane="11_0" arrivalPos="126.52" arrivalSpeed="13.84" duration="63.00" routeLength="259.36" waitingTime="34.00" waitingCount="1" stopTime="0.00" timeLoss="43.83" rerouteNo="0" devices="tripinfo_7.2" vType="DEFAULT_VEHTYPE" speedFactor="1.02" vaporized=""/>
    <tripinfo id="5.5" depart="234.00" departLane="1_0" departPos="5.10" departSpeed="0.00" departDelay="2.91" arrival="267.00" arrivalLane="33_0" arrivalPos="75.11" arrivalSpeed="11.28" duration="33.00" routeLength="216.66" waitingTime="6.00" waitingCount="1" stopTime="0.00" timeLoss="14.41" rerouteNo="0" devices="tripinfo_5.5" vType="DEFAULT_VEHTYPE" speedFactor="0.90" vaporized=""/>
    <tripinfo id="5.6" depart="237.00" departLane="1_0" departPos="5.10" departSpeed="0.00" departDelay="1.76" arrival="268.00" arrivalLane="33_0" arrivalPos="75.11" arrivalSpeed="12.87" duration="31.00" routeLength="216.66" waitingTime="4.00" waitingCount="1" stopTime="0.00" timeLoss="14.05" rerouteNo="0" devices="tripinfo_5.6" vType="DEFAULT_VEHTYPE" speedFactor="0.96" vaporized=""/>
    <tripinfo id="5.7" depart="245.00" departLane="1_0" departPos="5.10" departSpeed="0.00" departDelay="0.53" arrival="270.00" arrivalLane="33_0" arrivalPos="75.11" arrivalSpeed="13.66" duration="25.00" routeLength="216.66" waitingTime="0.00" waitingCount="0" stopTime="0.00" timeLoss="9.12" rerouteNo="0" devices="tripinfo_5.7" vType="DEFAULT_VEHTYPE" speedFactor="1.04" vaporized=""/>
    <tripinfo id="11.1" depart="240.00" departLane="2_0" departPos="5.10" departSpeed="0.00" departDelay="0.01" arrival="296.00" arrivalLane="33_1" arrivalPos="75.11" arrivalSpeed="13.86" duration="56.00" routeLength="217.27" waitingTime="32.00" waitingCount="1" stopTime="0.00" timeLoss="39.91" rerouteNo="0" devices="tripinfo_11.1" vType="DEFAULT_VEHTYPE" speedFactor="1.04" vaporized=""/>
    <tripinfo id="9.1" depart="281.00" departLane="2_0" departPos="5.10" departSpeed="0.00" departDelay="0.82" arrival="303.00" arrivalLane="22_2" arrivalPos="109.59" arrivalSpeed="11.05" duration="22.00" routeLength="218.90" waitingTime="0.00" waitingCount="0" stopTime="0.00" timeLoss="3.55" rerouteNo="0" devices="tripinfo_9.1" vType="DEFAULT_VEHTYPE" speedFactor="0.88" vaporized=""/>
    <tripinfo id="13.10" depart="276.00" departLane="3_0" departPos="5.10" departSpeed="0.00" departDelay="0.38" arrival="318.00" arrivalLane="11_1" arrivalPos="126.52" arrivalSpeed="12.83" duration="42.00" routeLength="227.87" waitingTime="17.00" waitingCount="1" stopTime="0.00" timeLoss="24.43" rerouteNo="0" devices="tripinfo_13.10" vType="DEFAULT_VEHTYPE" speedFactor="1.00" vaporized=""/>
    <tripinfo id="32.0" depart="304.00" departLane="3_0" departPos="5.10" departSpeed="0.00" departDelay="0.48" arrival="323.00" arrivalLane="11_1" arrivalPos="126.52" arrivalSpeed="16.02" duration="19.00" routeLength="227.87" waitingTime="0.00" waitingCount="0" stopTime="0.00" timeLoss="4.03" rerouteNo="0" devices="tripinfo_32.0" vType="DEFAULT_VEHTYPE" speedFactor="1.17" vaporized=""/>
    <tripinfo id="31.0" depart="308.00" departLane="3_0" departPos="5.10" departSpeed="0.00" departDelay="0.62" arrival="329.00" arrivalLane="11_1" arrivalPos="126.52" arrivalSpeed="13.67" duration="21.00" routeLength="227.87" waitingTime="0.00" waitingCount="0" stopTime="0.00" timeLoss="3.80" rerouteNo="0" devices="tripinfo_31.0" vType="DEFAULT_VEHTYPE" speedFactor="1.02" vaporized=""/>
    <tripinfo id="3.3" depart="275.00" departLane="1_0" departPos="5.10" departSpeed="0.00" departDelay="0.16" arrival="349.00" arrivalLane="22_0" arrivalPos="109.59" arrivalSpeed="13.86" duration="74.00" routeLength="259.48" waitingTime="46.00" waitingCount="1" stopTime="0.00" timeLoss="56.45" rerouteNo="0" devices="tripinfo_3.3" vType="DEFAULT_VEHTYPE" speedFactor="1.09" vaporized=""/>
    <tripinfo id="6.2" depart="296.00" departLane="1_0" departPos="5.10" departSpeed="0.00" departDelay="0.41" arrival="349.00" arrivalLane="33_0" arrivalPos="75.11" arrivalSpeed="11.24" duration="53.00" routeLength="216.66" waitingTime="26.00" waitingCount="1" stopTime="0.00" timeLoss="34.25" rerouteNo="0" devices="tripinfo_6.2" vType="DEFAULT_VEHTYPE" speedFactor="0.85" vaporized=""/>
    <tripinfo id="3.4" depart="278.00" departLane="1_0" departPos="5.10" departSpeed="0.00" departDelay="0.46" arrival="351.00" arrivalLane="22_1" arrivalPos="109.59" arrivalSpeed="11.69" duration="73.00" routeLength="259.48" waitingTime="42.00" waitingCount="1" stopTime="0.00" timeLoss="51.38" rerouteNo="0" devices="tripinfo_3.4" vType="DEFAULT_VEHTYPE" speedFactor="0.90" vaporized=""/>
    <tripinfo id="21.0" depart="321.00" departLane="1_0" departPos="5.10" departSpeed="0.00" departDelay="1.40" arrival="353.00" arrivalLane="22_1" arrivalPos="109.59" arrivalSpeed="13.39" duration="32.00" routeLength="259.48" waitingTime="1.00" waitingCount="1" stopTime="0.00" timeLoss="11.95" rerouteNo="0" devices="tripinfo_21.0" vType="DEFAULT_VEHTYPE" speedFactor="1.00" vaporized=""/>
    <tripinfo id="25.0" depart="333.00" departLane="2_0" departPos="5.10" departSpeed="0.00" departDelay="0.20" arrival="358.00" arrivalLane="11_0" arrivalPos="126.52" arrivalSpeed="11.71" duration="25.00" routeLength="259.36" waitingTime="0.00" waitingCount="0" stopTime="0.00" timeLoss="3.55" rerouteNo="0" devices="tripinfo_25.0" vType="DEFAULT_VEHTYPE" speedFactor="0.90" vaporized=""/>
    <tripinfo id="29.0" depart="342.00" departLane="2_0" departPos="5.10" departSpeed="0.00" departDelay="0.45" arrival="380.00" arrivalLane="33_1" arrivalPos="75.11" arrivalSpeed="14.72" duration="38.00" routeLength="217.27" waitingTime="14.00" waitingCount="1" stopTime="0.00" timeLoss="23.21" rerouteNo="0" devices="tripinfo_29.0" vType="DEFAULT_VEHTYPE" speedFactor="1.14" vaporized=""/>
    <tripinfo id="1.2" depart="299.00" departLane="1_0" departPos="5.10" departSpeed="0.00" departDelay="1.51" arrival="384.00" arrivalLane="11_2" arrivalPos="126.52" arrivalSpeed="11.40" duration="85.00" routeLength="252.76" waitingTime="54.00" waitingCount="1" stopTime="0.00" timeLoss="62.37" rerouteNo="0" devices="tripinfo_1.2" vType="DEFAULT_VEHTYPE" speedFactor="0.85" vaporized=""/>
    <tripinfo id="20.0" depart="319.00" departLane="1_0" departPos="5.10" departSpeed="0.00" departDelay="0.87" arrival="385.00" arrivalLane="11_2" arrivalPos="126.52" arrivalSpeed="12.83" duration="66.00" routeLength="252.76" waitingTime="36.00" waitingCount="1" stopTime="0.00" timeLoss="48.94" rerouteNo="0" devices="tripinfo_20.0" vType="DEFAULT_VEHTYPE" speedFactor="1.10" vaporized=""/>
    <tripinfo id="20.1" depart="370.00" departLane="1_0" departPos="5.10" departSpeed="0.00" departDelay="0.52" arrival="393.00" arrivalLane="11_2" arrivalPos="126.52" arrivalSpeed="12.57" duration="23.00" routeLength="252.76" waitingTime="0.00" waitingCount="0" stopTime="0.00" timeLoss="3.43" rerouteNo="0" devices="tripinfo_20.1" vType="DEFAULT_VEHTYPE" speedFactor="0.97" vaporized=""/>
    <tripinfo id="33.0" depart="358.00" departLane="3_0" departPos="5.10" departSpeed="0.00" departDelay="0.15" arrival="398.00" arrivalLane="22_0" arrivalPos="109.59" arrivalSpeed="14.09" duration="40.00" routeLength="185.88" waitingTime="18.00" waitingCount="1" stopTime="0.00" timeLoss="25.82" rerouteNo="0" devices="tripinfo_33.0" vType="DEFAULT_VEHTYPE" speedFactor="1.02" vaporized=""/>
    <tripinfo id="31.1" depart="332.00" departLane="3_0" departPos="5.10" departSpeed="0.00" departDelay="0.70" arrival="402.00" arrivalLane="11_1" arrivalPos="126.52" arrivalSpeed="13.40" duration="70.00" routeLength="227.87" waitingTime="45.00" waitingCount="1" stopTime="0.00" timeLoss="52.90" rerouteNo="0" devices="tripinfo_31.1" vType="DEFAULT_VEHTYPE" speedFactor="1.00" vaporized=""/>
    <tripinfo id="31.2" depart="402.00" departLane="3_0" departPos="5.10" departSpeed="0.00" departDelay="0.33" arrival="423.00" arrivalLane="11_1" arrivalPos="126.52" arrivalSpeed="12.45" duration="21.00" routeLength="227.87" waitingTime="0.00" waitingCount="0" stopTime="0.00" timeLoss="3.59" rerouteNo="0" devices="tripinfo_31.2" vType="DEFAULT_VEHTYPE" speedFactor="0.99" vaporized=""/>
    <tripinfo id="23.0" depart="373.00" departLane="1_0" departPos="5.10" departSpeed="0.00" departDelay="0.40" arrival="429.00" arrivalLane="33_0" arrivalPos="75.11" arrivalSpeed="14.89" duration="56.00" routeLength="216.66" waitingTime="33.00" waitingCount="1" stopTime="0.00" timeLoss="41.14" rerouteNo="0" devices="tripinfo_23.0" vType="DEFAULT_VEHTYPE" speedFactor="1.08" vaporized=""/>
    <tripinfo id="31.3" depart="408.00" departLane="3_0" departPos="5.10" departSpeed="0.00" departDelay="0.17" arrival="430.00" arrivalLane="11_1" arrivalPos="126.52" arrivalSpeed="12.26" duration="22.00" routeLength="227.87" waitingTime="0.00" waitingCount="0" stopTime="0.00" timeLoss="3.70" rerouteNo="0" devices="tripinfo_31.3" vType="DEFAULT_VEHTYPE" speedFactor="0.94" vaporized=""/>
    <tripinfo id="23.1" depart="382.00" departLane="1_0" departPos="5.10" departSpeed="0.00" departDelay="0.30" arrival="431.00" arrivalLane="33_0" arrivalPos="75.11" arrivalSpeed="14.72" duration="49.00" routeLength="216.66" waitingTime="25.00" waitingCount="1" stopTime="0.00" timeLoss="34.10" rerouteNo="0" devices="tripinfo_23.1" vType="DEFAULT_VEHTYPE" speedFactor="1.12" vaporized=""/>
    <tripinfo id="23.2" depart="385.00" departLane="1_0" departPos="5.10" departSpeed="0.00" departDelay="1.40" arrival="434.00" arrivalLane="33_0" arrivalPos="75.11" arrivalSpeed="13.13" duration="49.00" routeLength="216.66" waitingTime="23.00" waitingCount="1" stopTime="0.00" timeLoss="32.54" rerouteNo="0" devices="tripinfo_23.2" vType="DEFAULT_VEHTYPE" speedFactor="1.02" vaporized=""/>
    <tripinfo id="23.3" depart="426.00" departLane="1_0" departPos="5.10" departSpeed="0.00" departDelay="0.54" arrival="448.00" arrivalLane="33_0" arrivalPos="75.11" arrivalSpeed="11.42" duration="22.00" routeLength="216.66" waitingTime="0.00" waitingCount="0" stopTime="0.00" timeLoss="3.71" rerouteNo="0" devices="tripinfo_23.3" vType="DEFAULT_VEHTYPE" speedFactor="0.91" vaporized=""/>
    <tripinfo id="25.1" depart="423.00" departLane="2_0" departPos="5.10" departSpeed="0.00" departDelay="0.85" arrival="449.00" arrivalLane="11_0" arrivalPos="126.52" arrivalSpeed="11.08" duration="26.00" routeLength="259.36" waitingTime="0.00" waitingCount="0" stopTime="0.00" timeLoss="3.98" rerouteNo="0" devices="tripinfo_25.1" vType="DEFAULT_VEHTYPE" speedFactor="0.88" vaporized=""/>
    <tripinfo id="23.4" depart="429.00" departLane="1_0" departPos="5.10" departSpeed="0.00" departDelay="0.27" arrival="451.00" arrivalLane="33_0" arrivalPos="75.11" arrivalSpeed="12.35" duration="22.00" routeLength="216.66" waitingTime="0.00" waitingCount="0" stopTime="0.00" timeLoss="3.97" rerouteNo="0" devices="tripinfo_23.4" vType="DEFAULT_VEHTYPE" speedFactor="0.91" vaporized=""/>
    <tripinfo id="25.2" depart="452.00" departLane="2_0" departPos="5.10" departSpeed="0.00" departDelay="0.30" arrival="474.00" arrivalLane="11_0" arrivalPos="126.52" arrivalSpeed="13.47" duration="22.00" routeLength="259.36" waitingTime="0.00" waitingCount="0" stopTime="0.00" timeLoss="3.12" rerouteNo="0" devices="tripinfo_25.2" vType="DEFAULT_VEHTYPE" speedFactor="1.04" vaporized=""/>
    <tripinfo id="24.0" depart="459.00" departLane="1_0" departPos="5.10" departSpeed="0.00" departDelay="0.31" arrival="478.00" arrivalLane="33_0" arrivalPos="75.11" arrivalSpeed="13.66" duration="19.00" routeLength="216.66" waitingTime="0.00" waitingCount="0" stopTime="0.00" timeLoss="3.26" rerouteNo="0" devices="tripinfo_24.0" vType="DEFAULT_VEHTYPE" speedFactor="1.02" vaporized=""/>
    <tripinfo id="25.3" depart="468.00" departLane="2_0" departPos="5.10" departSpeed="0.00" departDelay="0.76" arrival="491.00" arrivalLane="11_0" arrivalPos="126.52" arrivalSpeed="13.87" duration="23.00" routeLength="259.36" waitingTime="0.00" waitingCount="0" stopTime="0.00" timeLoss="3.46" rerouteNo="0" devices="tripinfo_25.3" vType="DEFAULT_VEHTYPE" speedFactor="1.02" vaporized=""/>
    <tripinfo id="23.5" depart="472.00" departLane="1_0" departPos="5.10" departSpeed="0.00" departDelay="0.18" arrival="493.00" arrivalLane="33_0" arrivalPos="75.11" arrivalSpeed="12.92" duration="21.00" routeLength="216.66" waitingTime="0.00" waitingCount="0" stopTime="0.00" timeLoss="3.86" rerouteNo="0" devices="tripinfo_23.5" vType="DEFAULT_VEHTYPE" speedFactor="0.97" vaporized=""/>
    <tripinfo id="20.2" depart="483.00" departLane="1_0" departPos="5.10" departSpeed="0.00" departDelay="3.21" arrival="505.00" arrivalLane="11_2" arrivalPos="126.52" arrivalSpeed="13.85" duration="22.00" routeLength="252.76" waitingTime="0.00" waitingCount="0" stopTime="0.00" timeLoss="3.70" rerouteNo="0" devices="tripinfo_20.2" vType="DEFAULT_VEHTYPE" speedFactor="1.06" vaporized=""/>