<?xml version="1.0" encoding="UTF-8"?>

<!-- generated on 2022-11-10 15:49:10 by Eclipse SUMO GUI Version 1.12.0
<configuration xmlns:xsi="http://www.w3.org/2001/XMLSchema-instance" xsi:noNamespaceSchemaLocation="http://sumo.dlr.de/xsd/sumoConfiguration.xsd">

    <input>
        <net-file value="C:\Users\Burak\Desktop\mosas-projesi\QL_Cift_serit_Kilis_7902_Mosas_Verisi\mosas_kilis_7902_static.net.xml"/>
        <route-files value="C:\Users\Burak\Desktop\mosas-projesi\QL_Cift_serit_Kilis_7902_Mosas_Verisi\episode_routes_06-24.rou.xml"/>
        <additional-files value="C:\Users\Burak\Desktop\mosas-projesi\QL_Cift_serit_Kilis_7902_Mosas_Verisi\mosas_kilis_7902.det.xml"/>
    </input>

    <output>
        <tripinfo-output value="C:\Users\Burak\Desktop\mosas-projesi\QL_Cift_serit_Kilis_7902_Mosas_Verisi\my_intersection.trips.xml"/>
    </output>

    <time>
        <begin value="0"/>
        <end value="65000"/>
    </time>

    <report>
        <verbose value="true"/>
        <log value="C:\Users\Burak\Desktop\mosas-projesi\QL_Cift_serit_Kilis_7902_Mosas_Verisi\my_out.xml"/>
        <no-step-log value="true"/>
    </report>

</configuration>
-->

<detector xmlns:xsi="http://www.w3.org/2001/XMLSchema-instance" xsi:noNamespaceSchemaLocation="http://sumo.dlr.de/xsd/det_e1_file.xsd">
    <interval begin="0.00" end="200.00" id="1_0_0" nVehContrib="0" flow="0.00" occupancy="0.00" speed="-1.00" harmonicMeanSpeed="-1.00" length="-1.00" nVehEntered="0"/>
    <interval begin="200.00" end="400.00" id="1_0_0" nVehContrib="0" flow="0.00" occupancy="0.00" speed="-1.00" harmonicMeanSpeed="-1.00" length="-1.00" nVehEntered="0"/>
    <interval begin="400.00" end="600.00" id="1_0_0" nVehContrib="1" flow="18.00" occupancy="0.22" speed="11.37" harmonicMeanSpeed="11.37" length="5.00" nVehEntered="1"/>
    <interval begin="600.00" end="800.00" id="1_0_0" nVehContrib="4" flow="72.00" occupancy="0.72" speed="13.86" harmonicMeanSpeed="13.85" length="5.00" nVehEntered="4"/>
    <interval begin="800.00" end="1000.00" id="1_0_0" nVehContrib="0" flow="0.00" occupancy="0.00" speed="-1.00" harmonicMeanSpeed="-1.00" length="-1.00" nVehEntered="0"/>
    <interval begin="1000.00" end="1200.00" id="1_0_0" nVehContrib="2" flow="36.00" occupancy="0.57" speed="9.19" harmonicMeanSpeed="8.81" length="5.00" nVehEntered="2"/>
    <interval begin="1200.00" end="1400.00" id="1_0_0" nVehContrib="3" flow="54.00" occupancy="0.56" speed="13.50" harmonicMeanSpeed="13.41" length="5.00" nVehEntered="3"/>
    <interval begin="1400.00" end="1600.00" id="1_0_0" nVehContrib="0" flow="0.00" occupancy="0.00" speed="-1.00" harmonicMeanSpeed="-1.00" length="-1.00" nVehEntered="0"/>
    <interval begin="1600.00" end="1800.00" id="1_0_0" nVehContrib="2" flow="36.00" occupancy="0.40" speed="12.66" harmonicMeanSpeed="12.65" length="5.00" nVehEntered="2"/>
    <interval begin="1800.00" end="2000.00" id="1_0_0" nVehContrib="1" flow="18.00" occupancy="0.17" speed="14.32" harmonicMeanSpeed="14.32" length="5.00" nVehEntered="1"/>
    <interval begin="2000.00" end="2200.00" id="1_0_0" nVehContrib="1" flow="18.00" occupancy="0.18" speed="13.95" harmonicMeanSpeed="13.95" length="5.00" nVehEntered="1"/>
    <interval begin="2200.00" end="2400.00" id="1_0_0" nVehContrib="1" flow="18.00" occupancy="0.16" speed="15.22" harmonicMeanSpeed="15.22" length="5.00" nVehEntered="1"/>
    <interval begin="2400.00" end="2600.00" id="1_0_0" nVehContrib="0" flow="0.00" occupancy="0.00" speed="-1.00" harmonicMeanSpeed="-1.00" length="-1.00" nVehEntered="0"/>
    <interval begin="2600.00" end="2800.00" id="1_0_0" nVehContrib="2" flow="36.00" occupancy="0.36" speed="13.88" harmonicMeanSpeed="13.88" length="5.00" nVehEntered="2"/>
    <interval begin="2800.00" end="3000.00" id="1_0_0" nVehContrib="1" flow="18.00" occupancy="0.19" speed="13.32" harmonicMeanSpeed="13.32" length="5.00" nVehEntered="1"/>
    <interval begin="3000.00" end="3200.00" id="1_0_0" nVehContrib="5" flow="90.00" occupancy="1.01" speed="12.50" harmonicMeanSpeed="12.36" length="5.00" nVehEntered="5"/>
    <interval begin="3200.00" end="3400.00" id="1_0_0" nVehContrib="1" flow="18.00" occupancy="0.22" speed="11.49" harmonicMeanSpeed="11.49" length="5.00" nVehEntered="1"/>
    <interval begin="3400.00" end="3600.00" id="1_0_0" nVehContrib="3" flow="54.00" occupancy="0.52" speed="14.61" harmonicMeanSpeed="14.53" length="5.00" nVehEntered="3"/>
    <interval begin="3600.00" end="3800.00" id="1_0_0" nVehContrib="3" flow="54.00" occupancy="0.50" speed="15.07" harmonicMeanSpeed="15.01" length="5.00" nVehEntered="3"/>
    <interval begin="3800.00" end="4000.00" id="1_0_0" nVehContrib="4" flow="72.00" occupancy="0.81" speed="12.59" harmonicMeanSpeed="12.29" length="5.00" nVehEntered="4"/>
    <interval begin="4000.00" end="4200.00" id="1_0_0" nVehContrib="6" flow="108.00" occupancy="1.10" speed="13.77" harmonicMeanSpeed="13.66" length="5.00" nVehEntered="6"/>
    <interval begin="4200.00" end="4400.00" id="1_0_0" nVehContrib="1" flow="18.00" occupancy="0.21" speed="11.94" harmonicMeanSpeed="11.94" length="5.00" nVehEntered="1"/>
    <interval begin="4400.00" end="4600.00" id="1_0_0" nVehContrib="5" flow="90.00" occupancy="0.98" speed="12.84" harmonicMeanSpeed="12.69" length="5.00" nVehEntered="5"/>
    <interval begin="4600.00" end="4800.00" id="1_0_0" nVehContrib="7" flow="126.00" occupancy="1.31" speed="13.49" harmonicMeanSpeed="13.31" length="5.00" nVehEntered="7"/>
    <interval begin="4800.00" end="5000.00" id="1_0_0" nVehContrib="6" flow="108.00" occupancy="1.19" speed="12.89" harmonicMeanSpeed="12.62" length="5.00" nVehEntered="6"/>
    <interval begin="5000.00" end="5200.00" id="1_0_0" nVehContrib="0" flow="0.00" occupancy="0.00" speed="-1.00" harmonicMeanSpeed="-1.00" length="-1.00" nVehEntered="0"/>
    <interval begin="5200.00" end="5400.00" id="1_0_0" nVehContrib="12" flow="216.00" occupancy="2.30" speed="13.21" harmonicMeanSpeed="13.06" length="5.00" nVehEntered="12"/>
    <interval begin="5400.00" end="5600.00" id="1_0_0" nVehContrib="4" flow="72.00" occupancy="0.71" speed="14.35" harmonicMeanSpeed="14.08" length="5.00" nVehEntered="4"/>
    <interval begin="5600.00" end="5800.00" id="1_0_0" nVehContrib="1" flow="18.00" occupancy="0.21" speed="11.75" harmonicMeanSpeed="11.75" length="5.00" nVehEntered="1"/>
    <interval begin="5800.00" end="6000.00" id="1_0_0" nVehContrib="6" flow="108.00" occupancy="1.21" speed="12.40" harmonicMeanSpeed="12.36" length="5.00" nVehEntered="6"/>
    <interval begin="6000.00" end="6200.00" id="1_0_0" nVehContrib="2" flow="36.00" occupancy="0.51" speed="9.98" harmonicMeanSpeed="9.76" length="5.00" nVehEntered="2"/>
    <interval begin="6200.00" end="6400.00" id="1_0_0" nVehContrib="15" flow="270.00" occupancy="2.73" speed="13.90" harmonicMeanSpeed="13.74" length="5.00" nVehEntered="15"/>
    <interval begin="6400.00" end="6600.00" id="1_0_0" nVehContrib="0" flow="0.00" occupancy="0.00" speed="-1.00" harmonicMeanSpeed="-1.00" length="-1.00" nVehEntered="0"/>
    <interval begin="6600.00" end="6800.00" id="1_0_0" nVehContrib="0" flow="0.00" occupancy="0.00" speed="-1.00" harmonicMeanSpeed="-1.00" length="-1.00" nVehEntered="0"/>
    <interval begin="6800.00" end="7000.00" id="1_0_0" nVehContrib="6" flow="108.00" occupancy="1.03" speed="14.68" harmonicMeanSpeed="14.58" length="5.00" nVehEntered="6"/>
    <interval begin="7000.00" end="7200.00" id="1_0_0" nVehContrib="11" flow="198.00" occupancy="2.10" speed="13.26" harmonicMeanSpeed="13.07" length="5.00" nVehEntered="11"/>
    <interval begin="7200.00" end="7400.00" id="1_0_0" nVehContrib="11" flow="198.00" occupancy="2.15" speed="12.87" harmonicMeanSpeed="12.76" length="5.00" nVehEntered="11"/>
    <interval begin="7400.00" end="7600.00" id="1_0_0" nVehContrib="3" flow="54.00" occupancy="0.53" speed="14.20" harmonicMeanSpeed="14.18" length="5.00" nVehEntered="3"/>
    <interval begin="7600.00" end="7800.00" id="1_0_0" nVehContrib="8" flow="144.00" occupancy="1.59" speed="12.66" harmonicMeanSpeed="12.55" length="5.00" nVehEntered="8"/>
    <interval begin="7800.00" end="8000.00" id="1_0_0" nVehContrib="6" flow="108.00" occupancy="1.21" speed="12.79" harmonicMeanSpeed="12.40" length="5.00" nVehEntered="6"/>
    <interval begin="8000.00" end="8200.00" id="1_0_0" nVehContrib="5" flow="90.00" occupancy="0.98" speed="12.92" harmonicMeanSpeed="12.81" length="5.00" nVehEntered="5"/>
    <interval begin="8200.00" end="8400.00" id="1_0_0" nVehContrib="9" flow="162.00" occupancy="2.05" speed="11.25" harmonicMeanSpeed="10.97" length="5.00" nVehEntered="9"/>
    <interval begin="8400.00" end="8600.00" id="1_0_0" nVehContrib="10" flow="180.00" occupancy="2.22" speed="11.93" harmonicMeanSpeed="11.27" length="5.00" nVehEntered="10"/>
    <interval begin="8600.00" end="8800.00" id="1_0_0" nVehContrib="5" flow="90.00" occupancy="0.94" speed="13.40" harmonicMeanSpeed="13.27" length="5.00" nVehEntered="5"/>
    <interval begin="8800.00" end="9000.00" id="1_0_0" nVehContrib="2" flow="36.00" occupancy="0.34" speed="14.78" harmonicMeanSpeed="14.78" length="5.00" nVehEntered="2"/>
    <interval begin="9000.00" end="9200.00" id="1_0_0" nVehContrib="2" flow="36.00" occupancy="0.39" speed="12.89" harmonicMeanSpeed="12.80" length="5.00" nVehEntered="2"/>
    <interval begin="9200.00" end="9400.00" id="1_0_0" nVehContrib="9" flow="162.00" occupancy="1.81" speed="12.58" harmonicMeanSpeed="12.43" length="5.00" nVehEntered="9"/>
    <interval begin="9400.00" end="9600.00" id="1_0_0" nVehContrib="0" flow="0.00" occupancy="0.00" speed="-1.00" harmonicMeanSpeed="-1.00" length="-1.00" nVehEntered="0"/>
    <interval begin="9600.00" end="9800.00" id="1_0_0" nVehContrib="10" flow="180.00" occupancy="1.94" speed="13.07" harmonicMeanSpeed="12.88" length="5.00" nVehEntered="10"/>
    <interval begin="9800.00" end="10000.00" id="1_0_0" nVehContrib="0" flow="0.00" occupancy="0.00" speed="-1.00" harmonicMeanSpeed="-1.00" length="-1.00" nVehEntered="0"/>
    <interval begin="10000.00" end="10200.00" id="1_0_0" nVehContrib="8" flow="144.00" occupancy="1.60" speed="12.85" harmonicMeanSpeed="12.47" length="5.00" nVehEntered="8"/>
    <interval begin="10200.00" end="10400.00" id="1_0_0" nVehContrib="0" flow="0.00" occupancy="0.00" speed="-1.00" harmonicMeanSpeed="-1.00" length="-1.00" nVehEntered="0"/>
    <interval begin="10400.00" end="10600.00" id="1_0_0" nVehContrib="12" flow="216.00" occupancy="2.35" speed="12.82" harmonicMeanSpeed="12.75" length="5.00" nVehEntered="12"/>
    <interval begin="10600.00" end="10800.00" id="1_0_0" nVehContrib="7" flow="126.00" occupancy="1.22" speed="14.48" harmonicMeanSpeed="14.33" length="5.00" nVehEntered="7"/>
    <interval begin="10800.00" end="11000.00" id="1_0_0" nVehContrib="11" flow="198.00" occupancy="2.21" speed="12.86" harmonicMeanSpeed="12.45" length="5.00" nVehEntered="11"/>
    <interval begin="11000.00" end="11200.00" id="1_0_0" nVehContrib="9" flow="162.00" occupancy="1.79" speed="12.68" harmonicMeanSpeed="12.59" length="5.00" nVehEntered="9"/>
    <interval begin="11200.00" end="11400.00" id="1_0_0" nVehContrib="0" flow="0.00" occupancy="0.00" speed="-1.00" harmonicMeanSpeed="-1.00" length="-1.00" nVehEntered="0"/>
    <interval begin="11400.00" end="11600.00" id="1_0_0" nVehContrib="11" flow="198.00" occupancy="2.26" speed="12.33" harmonicMeanSpeed="12.15" length="5.00" nVehEntered="11"/>
    <interval begin="11600.00" end="11800.00" id="1_0_0" nVehContrib="1" flow="18.00" occupancy="0.18" speed="13.63" harmonicMeanSpeed="13.63" length="5.00" nVehEntered="1"/>
    <interval begin="11800.00" end="12000.00" id="1_0_0" nVehContrib="7" flow="126.00" occupancy="1.27" speed="13.95" harmonicMeanSpeed="13.81" length="5.00" nVehEntered="7"/>
    <interval begin="12000.00" end="12200.00" id="1_0_0" nVehContrib="6" flow="108.00" occupancy="1.11" speed="13.73" harmonicMeanSpeed="13.57" length="5.00" nVehEntered="6"/>
    <interval begin="12200.00" end="12400.00" id="1_0_0" nVehContrib="0" flow="0.00" occupancy="0.00" speed="-1.00" harmonicMeanSpeed="-1.00" length="-1.00" nVehEntered="0"/>
    <interval begin="12400.00" end="12600.00" id="1_0_0" nVehContrib="8" flow="144.00" occupancy="1.63" speed="12.42" harmonicMeanSpeed="12.25" length="5.00" nVehEntered="8"/>
    <interval begin="12600.00" end="12800.00" id="1_0_0" nVehContrib="6" flow="108.00" occupancy="1.13" speed="13.45" harmonicMeanSpeed="13.31" length="5.00" nVehEntered="6"/>
    <interval begin="12800.00" end="13000.00" id="1_0_0" nVehContrib="6" flow="108.00" occupancy="1.13" speed="13.36" harmonicMeanSpeed="13.32" length="5.00" nVehEntered="6"/>
    <interval begin="13000.00" end="13200.00" id="1_0_0" nVehContrib="5" flow="90.00" occupancy="0.89" speed="14.17" harmonicMeanSpeed="13.99" length="5.00" nVehEntered="5"/>
    <interval begin="13200.00" end="13400.00" id="1_0_0" nVehContrib="11" flow="198.00" occupancy="2.11" speed="13.15" harmonicMeanSpeed="13.06" length="5.00" nVehEntered="11"/>
    <interval begin="13400.00" end="13600.00" id="1_0_0" nVehContrib="0" flow="0.00" occupancy="0.00" speed="-1.00" harmonicMeanSpeed="-1.00" length="-1.00" nVehEntered="0"/>
    <interval begin="13600.00" end="13800.00" id="1_0_0" nVehContrib="6" flow="108.00" occupancy="1.12" speed="13.59" harmonicMeanSpeed="13.41" length="5.00" nVehEntered="6"/>
    <interval begin="13800.00" end="14000.00" id="1_0_0" nVehContrib="5" flow="90.00" occupancy="0.94" speed="13.44" harmonicMeanSpeed="13.26" length="5.00" nVehEntered="5"/>
    <interval begin="14000.00" end="14200.00" id="1_0_0" nVehContrib="3" flow="54.00" occupancy="0.53" speed="14.22" harmonicMeanSpeed="14.20" length="5.00" nVehEntered="3"/>
    <interval begin="14200.00" end="14400.00" id="1_0_0" nVehContrib="11" flow="198.00" occupancy="2.09" speed="13.26" harmonicMeanSpeed="13.13" length="5.00" nVehEntered="11"/>
    <interval begin="14400.00" end="14600.00" id="1_0_0" nVehContrib="7" flow="126.00" occupancy="1.30" speed="13.56" harmonicMeanSpeed="13.51" length="5.00" nVehEntered="7"/>
    <interval begin="14600.00" end="14800.00" id="1_0_0" nVehContrib="0" flow="0.00" occupancy="0.00" speed="-1.00" harmonicMeanSpeed="-1.00" length="-1.00" nVehEntered="0"/>
    <interval begin="14800.00" end="15000.00" id="1_0_0" nVehContrib="9" flow="162.00" occupancy="1.73" speed="13.11" harmonicMeanSpeed="12.98" length="5.00" nVehEntered="9"/>
    <interval begin="15000.00" end="15200.00" id="1_0_0" nVehContrib="4" flow="72.00" occupancy="0.83" speed="12.23" harmonicMeanSpeed="12.09" length="5.00" nVehEntered="4"/>
    <interval begin="15200.00" end="15400.00" id="1_0_0" nVehContrib="2" flow="36.00" occupancy="0.44" speed="11.59" harmonicMeanSpeed="11.29" length="5.00" nVehEntered="2"/>
    <interval begin="15400.00" end="15600.00" id="1_0_0" nVehContrib="7" flow="126.00" occupancy="1.75" speed="10.61" harmonicMeanSpeed="10.03" length="5.00" nVehEntered="7"/>
    <interval begin="15600.00" end="15800.00" id="1_0_0" nVehContrib="5" flow="90.00" occupancy="0.98" speed="12.92" harmonicMeanSpeed="12.81" length="5.00" nVehEntered="5"/>
    <interval begin="15800.00" end="16000.00" id="1_0_0" nVehContrib="9" flow="162.00" occupancy="1.80" speed="12.57" harmonicMeanSpeed="12.47" length="5.00" nVehEntered="9"/>
    <interval begin="16000.00" end="16200.00" id="1_0_0" nVehContrib="1" flow="18.00" occupancy="0.19" speed="13.47" harmonicMeanSpeed="13.47" length="5.00" nVehEntered="1"/>
    <interval begin="16200.00" end="16400.00" id="1_0_0" nVehContrib="3" flow="54.00" occupancy="0.56" speed="13.45" harmonicMeanSpeed="13.39" length="5.00" nVehEntered="3"/>
    <interval begin="16400.00" end="16600.00" id="1_0_0" nVehContrib="8" flow="144.00" occupancy="1.47" speed="13.61" harmonicMeanSpeed="13.56" length="5.00" nVehEntered="8"/>
    <interval begin="16600.00" end="16800.00" id="1_0_0" nVehContrib="2" flow="36.00" occupancy="0.40" speed="12.66" harmonicMeanSpeed="12.46" length="5.00" nVehEntered="2"/>
    <interval begin="16800.00" end="17000.00" id="1_0_0" nVehContrib="0" flow="0.00" occupancy="0.00" speed="-1.00" harmonicMeanSpeed="-1.00" length="-1.00" nVehEntered="0"/>
    <interval begin="17000.00" end="17200.00" id="1_0_0" nVehContrib="6" flow="108.00" occupancy="1.11" speed="13.52" harmonicMeanSpeed="13.47" length="5.00" nVehEntered="6"/>
    <interval begin="17200.00" end="17400.00" id="1_0_0" nVehContrib="11" flow="198.00" occupancy="1.96" speed="14.09" harmonicMeanSpeed="14.00" length="5.00" nVehEntered="11"/>
    <interval begin="17400.00" end="17600.00" id="1_0_0" nVehContrib="10" flow="180.00" occupancy="2.04" speed="12.41" harmonicMeanSpeed="12.24" length="5.00" nVehEntered="10"/>
    <interval begin="17600.00" end="17800.00" id="1_0_0" nVehContrib="1" flow="18.00" occupancy="0.19" speed="12.97" harmonicMeanSpeed="12.97" length="5.00" nVehEntered="1"/>
    <interval begin="17800.00" end="18000.00" id="1_0_0" nVehContrib="6" flow="108.00" occupancy="1.36" speed="11.58" harmonicMeanSpeed="11.02" length="5.00" nVehEntered="6"/>
    <interval begin="18000.00" end="18200.00" id="1_0_0" nVehContrib="7" flow="126.00" occupancy="1.34" speed="13.17" harmonicMeanSpeed="13.06" length="5.00" nVehEntered="7"/>
    <interval begin="18200.00" end="18400.00" id="1_0_0" nVehContrib="8" flow="144.00" occupancy="1.60" speed="12.75" harmonicMeanSpeed="12.49" length="5.00" nVehEntered="8"/>
    <interval begin="18400.00" end="18600.00" id="1_0_0" nVehContrib="3" flow="54.00" occupancy="0.59" speed="13.05" harmonicMeanSpeed="12.67" length="5.00" nVehEntered="3"/>
    <interval begin="18600.00" end="18800.00" id="1_0_0" nVehContrib="0" flow="0.00" occupancy="0.00" speed="-1.00" harmonicMeanSpeed="-1.00" length="-1.00" nVehEntered="0"/>
    <interval begin="18800.00" end="19000.00" id="1_0_0" nVehContrib="12" flow="216.00" occupancy="2.38" speed="12.77" harmonicMeanSpeed="12.62" length="5.00" nVehEntered="12"/>
    <interval begin="19000.00" end="19200.00" id="1_0_0" nVehContrib="7" flow="126.00" occupancy="1.51" speed="11.85" harmonicMeanSpeed="11.61" length="5.00" nVehEntered="7"/>
    <interval begin="19200.00" end="19400.00" id="1_0_0" nVehContrib="4" flow="72.00" occupancy="0.77" speed="13.06" harmonicMeanSpeed="12.93" length="5.00" nVehEntered="4"/>
    <interval begin="19400.00" end="19600.00" id="1_0_0" nVehContrib="9" flow="162.00" occupancy="1.73" speed="13.29" harmonicMeanSpeed="13.03" length="5.00" nVehEntered="9"/>
    <interval begin="19600.00" end="19800.00" id="1_0_0" nVehContrib="7" flow="126.00" occupancy="1.50" speed="11.79" harmonicMeanSpeed="11.67" length="5.00" nVehEntered="7"/>
    <interval begin="19800.00" end="20000.00" id="1_0_0" nVehContrib="6" flow="108.00" occupancy="1.08" speed="13.93" harmonicMeanSpeed="13.89" length="5.00" nVehEntered="6"/>
    <interval begin="20000.00" end="20200.00" id="1_0_0" nVehContrib="13" flow="234.00" occupancy="2.51" speed="13.20" harmonicMeanSpeed="12.96" length="5.00" nVehEntered="13"/>
    <interval begin="20200.00" end="20400.00" id="1_0_0" nVehContrib="4" flow="72.00" occupancy="0.69" speed="14.56" harmonicMeanSpeed="14.40" length="5.00" nVehEntered="4"/>
    <interval begin="20400.00" end="20600.00" id="1_0_0" nVehContrib="5" flow="90.00" occupancy="0.92" speed="13.94" harmonicMeanSpeed="13.66" length="5.00" nVehEntered="5"/>
    <interval begin="20600.00" end="20800.00" id="1_0_0" nVehContrib="10" flow="180.00" occupancy="1.91" speed="13.26" harmonicMeanSpeed="13.08" length="5.00" nVehEntered="10"/>
    <interval begin="20800.00" end="21000.00" id="1_0_0" nVehContrib="4" flow="72.00" occupancy="0.74" speed="13.65" harmonicMeanSpeed="13.43" length="5.00" nVehEntered="4"/>
    <interval begin="21000.00" end="21200.00" id="1_0_0" nVehContrib="11" flow="198.00" occupancy="2.08" speed="13.44" harmonicMeanSpeed="13.23" length="5.00" nVehEntered="11"/>
    <interval begin="21200.00" end="21400.00" id="1_0_0" nVehContrib="9" flow="162.00" occupancy="1.72" speed="13.18" harmonicMeanSpeed="13.05" length="5.00" nVehEntered="9"/>
    <interval begin="21400.00" end="21600.00" id="1_0_0" nVehContrib="0" flow="0.00" occupancy="0.00" speed="-1.00" harmonicMeanSpeed="-1.00" length="-1.00" nVehEntered="0"/>
    <interval begin="21600.00" end="21800.00" id="1_0_0" nVehContrib="8" flow="144.00" occupancy="1.67" speed="12.32" harmonicMeanSpeed="11.97" length="5.00" nVehEntered="8"/>
    <interval begin="21800.00" end="22000.00" id="1_0_0" nVehContrib="0" flow="0.00" occupancy="0.00" speed="-1.00" harmonicMeanSpeed="-1.00" length="-1.00" nVehEntered="0"/>
    <interval begin="22000.00" end="22200.00" id="1_0_0" nVehContrib="13" flow="234.00" occupancy="2.63" speed="12.63" harmonicMeanSpeed="12.38" length="5.00" nVehEntered="13"/>
    <interval begin="22200.00" end="22400.00" id="1_0_0" nVehContrib="0" flow="0.00" occupancy="0.00" speed="-1.00" harmonicMeanSpeed="-1.00" length="-1.00" nVehEntered="0"/>
    <interval begin="22400.00" end="22600.00" id="1_0_0" nVehContrib="16" flow="288.00" occupancy="3.23" speed="12.98" harmonicMeanSpeed="12.38" length="5.00" nVehEntered="16"/>
    <interval begin="22600.00" end="22800.00" id="1_0_0" nVehContrib="5" flow="90.00" occupancy="0.93" speed="13.57" harmonicMeanSpeed="13.49" length="5.00" nVehEntered="5"/>
    <interval begin="22800.00" end="23000.00" id="1_0_0" nVehContrib="0" flow="0.00" occupancy="0.00" speed="-1.00" harmonicMeanSpeed="-1.00" length="-1.00" nVehEntered="0"/>
    <interval begin="23000.00" end="23200.00" id="1_0_0" nVehContrib="8" flow="144.00" occupancy="1.55" speed="13.02" harmonicMeanSpeed="12.93" length="5.00" nVehEntered="8"/>
    <interval begin="23200.00" end="23400.00" id="1_0_0" nVehContrib="9" flow="162.00" occupancy="1.74" speed="13.08" harmonicMeanSpeed="12.96" length="5.00" nVehEntered="9"/>
    <interval begin="23400.00" end="23600.00" id="1_0_0" nVehContrib="4" flow="72.00" occupancy="0.84" speed="12.18" harmonicMeanSpeed="11.87" length="5.00" nVehEntered="4"/>
    <interval begin="23600.00" end="23800.00" id="1_0_0" nVehContrib="11" flow="198.00" occupancy="2.23" speed="12.62" harmonicMeanSpeed="12.33" length="5.00" nVehEntered="11"/>
    <interval begin="23800.00" end="24000.00" id="1_0_0" nVehContrib="0" flow="0.00" occupancy="0.00" speed="-1.00" harmonicMeanSpeed="-1.00" length="-1.00" nVehEntered="0"/>
    <interval begin="24000.00" end="24200.00" id="1_0_0" nVehContrib="10" flow="180.00" occupancy="1.91" speed="13.15" harmonicMeanSpeed="13.06" length="5.00" nVehEntered="10"/>
    <interval begin="24200.00" end="24400.00" id="1_0_0" nVehContrib="2" flow="36.00" occupancy="0.43" speed="11.68" harmonicMeanSpeed="11.62" length="5.00" nVehEntered="2"/>
    <interval begin="24400.00" end="24600.00" id="1_0_0" nVehContrib="5" flow="90.00" occupancy="1.38" speed="9.45" harmonicMeanSpeed="9.08" length="5.00" nVehEntered="5"/>
    <interval begin="24600.00" end="24800.00" id="1_0_0" nVehContrib="0" flow="0.00" occupancy="0.00" speed="-1.00" harmonicMeanSpeed="-1.00" length="-1.00" nVehEntered="0"/>
    <interval begin="24800.00" end="25000.00" id="1_0_0" nVehContrib="8" flow="144.00" occupancy="1.67" speed="12.67" harmonicMeanSpeed="11.98" length="5.00" nVehEntered="8"/>
    <interval begin="25000.00" end="25200.00" id="1_0_0" nVehContrib="9" flow="162.00" occupancy="1.84" speed="12.43" harmonicMeanSpeed="12.26" length="5.00" nVehEntered="9"/>
    <interval begin="25200.00" end="25400.00" id="1_0_0" nVehContrib="0" flow="0.00" occupancy="0.00" speed="-1.00" harmonicMeanSpeed="-1.00" length="-1.00" nVehEntered="0"/>
    <interval begin="25400.00" end="25600.00" id="1_0_0" nVehContrib="11" flow="198.00" occupancy="2.09" speed="13.36" harmonicMeanSpeed="13.15" length="5.00" nVehEntered="11"/>
    <interval begin="25600.00" end="25800.00" id="1_0_0" nVehContrib="10" flow="180.00" occupancy="1.88" speed="13.41" harmonicMeanSpeed="13.29" length="5.00" nVehEntered="10"/>
    <interval begin="25800.00" end="26000.00" id="1_0_0" nVehContrib="0" flow="0.00" occupancy="0.00" speed="-1.00" harmonicMeanSpeed="-1.00" length="-1.00" nVehEntered="0"/>
    <interval begin="26000.00" end="26200.00" id="1_0_0" nVehContrib="4" flow="72.00" occupancy="0.85" speed="11.86" harmonicMeanSpeed="11.72" length="5.00" nVehEntered="4"/>
    <interval begin="26200.00" end="26400.00" id="1_0_0" nVehContrib="7" flow="126.00" occupancy="1.30" speed="13.59" harmonicMeanSpeed="13.42" length="5.00" nVehEntered="7"/>
    <interval begin="26400.00" end="26600.00" id="1_0_0" nVehContrib="1" flow="18.00" occupancy="0.20" speed="12.68" harmonicMeanSpeed="12.68" length="5.00" nVehEntered="1"/>
    <interval begin="26600.00" end="26800.00" id="1_0_0" nVehContrib="11" flow="198.00" occupancy="2.13" speed="13.10" harmonicMeanSpeed="12.91" length="5.00" nVehEntered="11"/>
    <interval begin="26800.00" end="27000.00" id="1_0_0" nVehContrib="12" flow="216.00" occupancy="2.27" speed="13.41" harmonicMeanSpeed="13.23" length="5.00" nVehEntered="12"/>
    <interval begin="27000.00" end="27200.00" id="1_0_0" nVehContrib="12" flow="216.00" occupancy="2.39" speed="12.65" harmonicMeanSpeed="12.54" length="5.00" nVehEntered="12"/>
    <interval begin="27200.00" end="27400.00" id="1_0_0" nVehContrib="0" flow="0.00" occupancy="0.00" speed="-1.00" harmonicMeanSpeed="-1.00" length="-1.00" nVehEntered="0"/>
    <interval begin="27400.00" end="27600.00" id="1_0_0" nVehContrib="7" flow="126.00" occupancy="1.48" speed="12.01" harmonicMeanSpeed="11.82" length="5.00" nVehEntered="7"/>
    <interval begin="27600.00" end="27800.00" id="1_0_0" nVehContrib="5" flow="90.00" occupancy="1.24" speed="10.75" harmonicMeanSpeed="10.06" length="5.00" nVehEntered="5"/>
    <interval begin="27800.00" end="28000.00" id="1_0_0" nVehContrib="14" flow="252.00" occupancy="2.78" speed="12.86" harmonicMeanSpeed="12.60" length="5.00" nVehEntered="14"/>
    <interval begin="28000.00" end="28200.00" id="1_0_0" nVehContrib="1" flow="18.00" occupancy="0.18" speed="13.67" harmonicMeanSpeed="13.67" length="5.00" nVehEntered="1"/>
    <interval begin="28200.00" end="28400.00" id="1_0_0" nVehContrib="11" flow="198.00" occupancy="2.47" speed="11.45" harmonicMeanSpeed="11.12" length="5.00" nVehEntered="11"/>
    <interval begin="28400.00" end="28600.00" id="1_0_0" nVehContrib="0" flow="0.00" occupancy="0.00" speed="-1.00" harmonicMeanSpeed="-1.00" length="-1.00" nVehEntered="0"/>
    <interval begin="28600.00" end="28800.00" id="1_0_0" nVehContrib="11" flow="198.00" occupancy="2.19" speed="12.75" harmonicMeanSpeed="12.56" length="5.00" nVehEntered="11"/>
    <interval begin="28800.00" end="29000.00" id="1_0_0" nVehContrib="5" flow="90.00" occupancy="0.87" speed="14.42" harmonicMeanSpeed="14.39" length="5.00" nVehEntered="5"/>
    <interval begin="29000.00" end="29200.00" id="1_0_0" nVehContrib="0" flow="0.00" occupancy="0.00" speed="-1.00" harmonicMeanSpeed="-1.00" length="-1.00" nVehEntered="0"/>
    <interval begin="29200.00" end="29400.00" id="1_0_0" nVehContrib="11" flow="198.00" occupancy="2.36" speed="11.95" harmonicMeanSpeed="11.64" length="5.00" nVehEntered="11"/>
    <interval begin="29400.00" end="29600.00" id="1_0_0" nVehContrib="9" flow="162.00" occupancy="1.69" speed="13.50" harmonicMeanSpeed="13.30" length="5.00" nVehEntered="9"/>
    <interval begin="29600.00" end="29800.00" id="1_0_0" nVehContrib="13" flow="234.00" occupancy="2.62" speed="12.46" harmonicMeanSpeed="12.39" length="5.00" nVehEntered="13"/>
    <interval begin="29800.00" end="30000.00" id="1_0_0" nVehContrib="0" flow="0.00" occupancy="0.00" speed="-1.00" harmonicMeanSpeed="-1.00" length="-1.00" nVehEntered="0"/>
    <interval begin="30000.00" end="30200.00" id="1_0_0" nVehContrib="2" flow="36.00" occupancy="0.41" speed="12.16" harmonicMeanSpeed="12.11" length="5.00" nVehEntered="2"/>
    <interval begin="30200.00" end="30400.00" id="1_0_0" nVehContrib="15" flow="270.00" occupancy="2.97" speed="12.91" harmonicMeanSpeed="12.64" length="5.00" nVehEntered="15"/>
    <interval begin="30400.00" end="30600.00" id="1_0_0" nVehContrib="7" flow="126.00" occupancy="1.28" speed="13.74" harmonicMeanSpeed="13.66" length="5.00" nVehEntered="7"/>
    <interval begin="30600.00" end="30800.00" id="1_0_0" nVehContrib="7" flow="126.00" occupancy="2.01" speed="10.25" harmonicMeanSpeed="8.71" length="5.00" nVehEntered="7"/>
    <interval begin="30800.00" end="31000.00" id="1_0_0" nVehContrib="7" flow="126.00" occupancy="1.32" speed="13.41" harmonicMeanSpeed="13.29" length="5.00" nVehEntered="7"/>
    <interval begin="31000.00" end="31200.00" id="1_0_0" nVehContrib="2" flow="36.00" occupancy="0.37" speed="13.57" harmonicMeanSpeed="13.56" length="5.00" nVehEntered="2"/>
    <interval begin="31200.00" end="31400.00" id="1_0_0" nVehContrib="5" flow="90.00" occupancy="0.99" speed="12.77" harmonicMeanSpeed="12.64" length="5.00" nVehEntered="5"/>
    <interval begin="31400.00" end="31600.00" id="1_0_0" nVehContrib="13" flow="234.00" occupancy="2.45" speed="13.41" harmonicMeanSpeed="13.25" length="5.00" nVehEntered="13"/>
    <interval begin="31600.00" end="31800.00" id="1_0_0" nVehContrib="0" flow="0.00" occupancy="0.00" speed="-1.00" harmonicMeanSpeed="-1.00" length="-1.00" nVehEntered="0"/>
    <interval begin="31800.00" end="32000.00" id="1_0_0" nVehContrib="10" flow="180.00" occupancy="2.01" speed="12.84" harmonicMeanSpeed="12.42" length="5.00" nVehEntered="10"/>
    <interval begin="32000.00" end="32200.00" id="1_0_0" nVehContrib="0" flow="0.00" occupancy="0.00" speed="-1.00" harmonicMeanSpeed="-1.00" length="-1.00" nVehEntered="0"/>
    <interval begin="32200.00" end="32400.00" id="1_0_0" nVehContrib="14" flow="252.00" occupancy="3.00" speed="11.96" harmonicMeanSpeed="11.68" length="5.00" nVehEntered="14"/>
    <interval begin="32400.00" end="32600.00" id="1_0_0" nVehContrib="5" flow="90.00" occupancy="0.95" speed="13.23" harmonicMeanSpeed="13.14" length="5.00" nVehEntered="5"/>