<?xml version="1.0" encoding="UTF-8"?>

<!-- generated on 2022-11-10 15:49:10 by Eclipse SUMO GUI Version 1.12.0
<configuration xmlns:xsi="http://www.w3.org/2001/XMLSchema-instance" xsi:noNamespaceSchemaLocation="http://sumo.dlr.de/xsd/sumoConfiguration.xsd">

    <input>
        <net-file value="C:\Users\Burak\Desktop\mosas-projesi\QL_Cift_serit_Kilis_7902_Mosas_Verisi\mosas_kilis_7902_static.net.xml"/>
        <route-files value="C:\Users\Burak\Desktop\mosas-projesi\QL_Cift_serit_Kilis_7902_Mosas_Verisi\episode_routes_06-24.rou.xml"/>
        <additional-files value="C:\Users\Burak\Desktop\mosas-projesi\QL_Cift_serit_Kilis_7902_Mosas_Verisi\mosas_kilis_7902.det.xml"/>
    </input>

    <output>
        <tripinfo-output value="C:\Users\Burak\Desktop\mosas-projesi\QL_Cift_serit_Kilis_7902_Mosas_Verisi\my_intersection.trips.xml"/>
    </output>

    <time>
        <begin value="0"/>
        <end value="65000"/>
    </time>

    <report>
        <verbose value="true"/>
        <log value="C:\Users\Burak\Desktop\mosas-projesi\QL_Cift_serit_Kilis_7902_Mosas_Verisi\my_out.xml"/>
        <no-step-log value="true"/>
    </report>

</configuration>
-->

<detector xmlns:xsi="http://www.w3.org/2001/XMLSchema-instance" xsi:noNamespaceSchemaLocation="http://sumo.dlr.de/xsd/det_e1_file.xsd">
    <interval begin="0.00" end="200.00" id="2_0_0" nVehContrib="0" flow="0.00" occupancy="0.00" speed="-1.00" harmonicMeanSpeed="-1.00" length="-1.00" nVehEntered="0"/>
    <interval begin="200.00" end="400.00" id="2_0_0" nVehContrib="1" flow="18.00" occupancy="0.18" speed="13.65" harmonicMeanSpeed="13.65" length="5.00" nVehEntered="1"/>
    <interval begin="400.00" end="600.00" id="2_0_0" nVehContrib="0" flow="0.00" occupancy="0.00" speed="-1.00" harmonicMeanSpeed="-1.00" length="-1.00" nVehEntered="0"/>
    <interval begin="600.00" end="800.00" id="2_0_0" nVehContrib="1" flow="18.00" occupancy="0.22" speed="11.44" harmonicMeanSpeed="11.44" length="5.00" nVehEntered="1"/>
    <interval begin="800.00" end="1000.00" id="2_0_0" nVehContrib="0" flow="0.00" occupancy="0.00" speed="-1.00" harmonicMeanSpeed="-1.00" length="-1.00" nVehEntered="0"/>
    <interval begin="1000.00" end="1200.00" id="2_0_0" nVehContrib="1" flow="18.00" occupancy="0.19" speed="12.99" harmonicMeanSpeed="12.99" length="5.00" nVehEntered="1"/>
    <interval begin="1200.00" end="1400.00" id="2_0_0" nVehContrib="1" flow="18.00" occupancy="0.16" speed="15.53" harmonicMeanSpeed="15.53" length="5.00" nVehEntered="1"/>
    <interval begin="1400.00" end="1600.00" id="2_0_0" nVehContrib="1" flow="18.00" occupancy="0.16" speed="15.18" harmonicMeanSpeed="15.18" length="5.00" nVehEntered="1"/>
    <interval begin="1600.00" end="1800.00" id="2_0_0" nVehContrib="1" flow="18.00" occupancy="0.21" speed="12.18" harmonicMeanSpeed="12.18" length="5.00" nVehEntered="1"/>
    <interval begin="1800.00" end="2000.00" id="2_0_0" nVehContrib="1" flow="18.00" occupancy="0.23" speed="10.86" harmonicMeanSpeed="10.86" length="5.00" nVehEntered="1"/>
    <interval begin="2000.00" end="2200.00" id="2_0_0" nVehContrib="1" flow="18.00" occupancy="0.23" speed="11.02" harmonicMeanSpeed="11.02" length="5.00" nVehEntered="1"/>
    <interval begin="2200.00" end="2400.00" id="2_0_0" nVehContrib="5" flow="90.00" occupancy="0.90" speed="13.89" harmonicMeanSpeed="13.85" length="5.00" nVehEntered="5"/>
    <interval begin="2400.00" end="2600.00" id="2_0_0" nVehContrib="2" flow="36.00" occupancy="0.42" speed="11.84" harmonicMeanSpeed="11.80" length="5.00" nVehEntered="2"/>
    <interval begin="2600.00" end="2800.00" id="2_0_0" nVehContrib="3" flow="54.00" occupancy="0.59" speed="12.71" harmonicMeanSpeed="12.70" length="5.00" nVehEntered="3"/>
    <interval begin="2800.00" end="3000.00" id="2_0_0" nVehContrib="1" flow="18.00" occupancy="0.19" speed="13.43" harmonicMeanSpeed="13.43" length="5.00" nVehEntered="1"/>
    <interval begin="3000.00" end="3200.00" id="2_0_0" nVehContrib="2" flow="36.00" occupancy="0.33" speed="14.97" harmonicMeanSpeed="14.97" length="5.00" nVehEntered="2"/>
    <interval begin="3200.00" end="3400.00" id="2_0_0" nVehContrib="3" flow="54.00" occupancy="0.58" speed="12.89" harmonicMeanSpeed="12.89" length="5.00" nVehEntered="3"/>
    <interval begin="3400.00" end="3600.00" id="2_0_0" nVehContrib="1" flow="18.00" occupancy="0.20" speed="12.28" harmonicMeanSpeed="12.28" length="5.00" nVehEntered="1"/>
    <interval begin="3600.00" end="3800.00" id="2_0_0" nVehContrib="1" flow="18.00" occupancy="0.20" speed="12.27" harmonicMeanSpeed="12.27" length="5.00" nVehEntered="1"/>
    <interval begin="3800.00" end="4000.00" id="2_0_0" nVehContrib="5" flow="90.00" occupancy="1.00" speed="12.87" harmonicMeanSpeed="12.55" length="5.00" nVehEntered="5"/>
    <interval begin="4000.00" end="4200.00" id="2_0_0" nVehContrib="4" flow="72.00" occupancy="0.71" speed="14.25" harmonicMeanSpeed="14.10" length="5.00" nVehEntered="4"/>
    <interval begin="4200.00" end="4400.00" id="2_0_0" nVehContrib="5" flow="90.00" occupancy="0.91" speed="13.84" harmonicMeanSpeed="13.80" length="5.00" nVehEntered="5"/>
    <interval begin="4400.00" end="4600.00" id="2_0_0" nVehContrib="1" flow="18.00" occupancy="0.18" speed="13.70" harmonicMeanSpeed="13.70" length="5.00" nVehEntered="1"/>
    <interval begin="4600.00" end="4800.00" id="2_0_0" nVehContrib="1" flow="18.00" occupancy="0.17" speed="14.81" harmonicMeanSpeed="14.81" length="5.00" nVehEntered="1"/>
    <interval begin="4800.00" end="5000.00" id="2_0_0" nVehContrib="2" flow="36.00" occupancy="0.40" speed="12.43" harmonicMeanSpeed="12.43" length="5.00" nVehEntered="2"/>
    <interval begin="5000.00" end="5200.00" id="2_0_0" nVehContrib="6" flow="108.00" occupancy="1.13" speed="13.39" harmonicMeanSpeed="13.26" length="5.00" nVehEntered="6"/>
    <interval begin="5200.00" end="5400.00" id="2_0_0" nVehContrib="1" flow="18.00" occupancy="0.20" speed="12.76" harmonicMeanSpeed="12.76" length="5.00" nVehEntered="1"/>
    <interval begin="5400.00" end="5600.00" id="2_0_0" nVehContrib="2" flow="36.00" occupancy="0.44" speed="11.44" harmonicMeanSpeed="11.44" length="5.00" nVehEntered="2"/>
    <interval begin="5600.00" end="5800.00" id="2_0_0" nVehContrib="6" flow="108.00" occupancy="1.14" speed="13.19" harmonicMeanSpeed="13.12" length="5.00" nVehEntered="6"/>
    <interval begin="5800.00" end="6000.00" id="2_0_0" nVehContrib="2" flow="36.00" occupancy="0.42" speed="12.08" harmonicMeanSpeed="11.77" length="5.00" nVehEntered="2"/>
    <interval begin="6000.00" end="6200.00" id="2_0_0" nVehContrib="7" flow="126.00" occupancy="1.43" speed="12.37" harmonicMeanSpeed="12.28" length="5.00" nVehEntered="7"/>
    <interval begin="6200.00" end="6400.00" id="2_0_0" nVehContrib="0" flow="0.00" occupancy="0.00" speed="-1.00" harmonicMeanSpeed="-1.00" length="-1.00" nVehEntered="0"/>
    <interval begin="6400.00" end="6600.00" id="2_0_0" nVehContrib="7" flow="126.00" occupancy="1.37" speed="12.94" harmonicMeanSpeed="12.76" length="5.00" nVehEntered="7"/>
    <interval begin="6600.00" end="6800.00" id="2_0_0" nVehContrib="10" flow="180.00" occupancy="1.96" speed="12.91" harmonicMeanSpeed="12.77" length="5.00" nVehEntered="10"/>
    <interval begin="6800.00" end="7000.00" id="2_0_0" nVehContrib="0" flow="0.00" occupancy="0.00" speed="-1.00" harmonicMeanSpeed="-1.00" length="-1.00" nVehEntered="0"/>
    <interval begin="7000.00" end="7200.00" id="2_0_0" nVehContrib="8" flow="144.00" occupancy="1.47" speed="13.71" harmonicMeanSpeed="13.65" length="5.00" nVehEntered="8"/>
    <interval begin="7200.00" end="7400.00" id="2_0_0" nVehContrib="13" flow="234.00" occupancy="2.47" speed="13.21" harmonicMeanSpeed="13.14" length="5.00" nVehEntered="13"/>
    <interval begin="7400.00" end="7600.00" id="2_0_0" nVehContrib="0" flow="0.00" occupancy="0.00" speed="-1.00" harmonicMeanSpeed="-1.00" length="-1.00" nVehEntered="0"/>
    <interval begin="7600.00" end="7800.00" id="2_0_0" nVehContrib="18" flow="324.00" occupancy="3.52" speed="13.05" harmonicMeanSpeed="12.80" length="5.00" nVehEntered="18"/>
    <interval begin="7800.00" end="8000.00" id="2_0_0" nVehContrib="9" flow="162.00" occupancy="1.74" speed="13.17" harmonicMeanSpeed="12.94" length="5.00" nVehEntered="9"/>
    <interval begin="8000.00" end="8200.00" id="2_0_0" nVehContrib="0" flow="0.00" occupancy="0.00" speed="-1.00" harmonicMeanSpeed="-1.00" length="-1.00" nVehEntered="0"/>
    <interval begin="8200.00" end="8400.00" id="2_0_0" nVehContrib="8" flow="144.00" occupancy="1.48" speed="13.55" harmonicMeanSpeed="13.51" length="5.00" nVehEntered="8"/>
    <interval begin="8400.00" end="8600.00" id="2_0_0" nVehContrib="12" flow="216.00" occupancy="2.53" speed="12.29" harmonicMeanSpeed="11.88" length="5.00" nVehEntered="12"/>
    <interval begin="8600.00" end="8800.00" id="2_0_0" nVehContrib="0" flow="0.00" occupancy="0.00" speed="-1.00" harmonicMeanSpeed="-1.00" length="-1.00" nVehEntered="0"/>
    <interval begin="8800.00" end="9000.00" id="2_0_0" nVehContrib="12" flow="216.00" occupancy="2.30" speed="13.31" harmonicMeanSpeed="13.04" length="5.00" nVehEntered="12"/>
    <interval begin="9000.00" end="9200.00" id="2_0_0" nVehContrib="3" flow="54.00" occupancy="0.63" speed="12.53" harmonicMeanSpeed="11.89" length="5.00" nVehEntered="3"/>
    <interval begin="9200.00" end="9400.00" id="2_0_0" nVehContrib="10" flow="180.00" occupancy="1.90" speed="13.25" harmonicMeanSpeed="13.14" length="5.00" nVehEntered="10"/>
    <interval begin="9400.00" end="9600.00" id="2_0_0" nVehContrib="10" flow="180.00" occupancy="1.81" speed="13.89" harmonicMeanSpeed="13.80" length="5.00" nVehEntered="10"/>
    <interval begin="9600.00" end="9800.00" id="2_0_0" nVehContrib="8" flow="144.00" occupancy="1.49" speed="13.75" harmonicMeanSpeed="13.47" length="5.00" nVehEntered="8"/>
    <interval begin="9800.00" end="10000.00" id="2_0_0" nVehContrib="1" flow="18.00" occupancy="0.17" speed="14.55" harmonicMeanSpeed="14.55" length="5.00" nVehEntered="1"/>
    <interval begin="10000.00" end="10200.00" id="2_0_0" nVehContrib="6" flow="108.00" occupancy="1.01" speed="14.82" harmonicMeanSpeed="14.78" length="5.00" nVehEntered="6"/>
    <interval begin="10200.00" end="10400.00" id="2_0_0" nVehContrib="8" flow="144.00" occupancy="1.65" speed="12.17" harmonicMeanSpeed="12.14" length="5.00" nVehEntered="8"/>
    <interval begin="10400.00" end="10600.00" id="2_0_0" nVehContrib="2" flow="36.00" occupancy="0.42" speed="12.08" harmonicMeanSpeed="11.90" length="5.00" nVehEntered="2"/>
    <interval begin="10600.00" end="10800.00" id="2_0_0" nVehContrib="8" flow="144.00" occupancy="1.56" speed="13.21" harmonicMeanSpeed="12.81" length="5.00" nVehEntered="8"/>
    <interval begin="10800.00" end="11000.00" id="2_0_0" nVehContrib="6" flow="108.00" occupancy="1.14" speed="13.32" harmonicMeanSpeed="13.19" length="5.00" nVehEntered="6"/>
    <interval begin="11000.00" end="11200.00" id="2_0_0" nVehContrib="4" flow="72.00" occupancy="0.85" speed="11.88" harmonicMeanSpeed="11.80" length="5.00" nVehEntered="4"/>
    <interval begin="11200.00" end="11400.00" id="2_0_0" nVehContrib="3" flow="54.00" occupancy="0.59" speed="12.67" harmonicMeanSpeed="12.64" length="5.00" nVehEntered="3"/>
    <interval begin="11400.00" end="11600.00" id="2_0_0" nVehContrib="4" flow="72.00" occupancy="0.76" speed="13.13" harmonicMeanSpeed="13.13" length="5.00" nVehEntered="4"/>
    <interval begin="11600.00" end="11800.00" id="2_0_0" nVehContrib="4" flow="72.00" occupancy="0.77" speed="13.09" harmonicMeanSpeed="12.98" length="5.00" nVehEntered="4"/>
    <interval begin="11800.00" end="12000.00" id="2_0_0" nVehContrib="7" flow="126.00" occupancy="1.37" speed="13.05" harmonicMeanSpeed="12.78" length="5.00" nVehEntered="7"/>
    <interval begin="12000.00" end="12200.00" id="2_0_0" nVehContrib="3" flow="54.00" occupancy="0.58" speed="13.06" harmonicMeanSpeed="12.87" length="5.00" nVehEntered="3"/>
    <interval begin="12200.00" end="12400.00" id="2_0_0" nVehContrib="5" flow="90.00" occupancy="0.90" speed="13.94" harmonicMeanSpeed="13.89" length="5.00" nVehEntered="5"/>
    <interval begin="12400.00" end="12600.00" id="2_0_0" nVehContrib="7" flow="126.00" occupancy="1.42" speed="12.44" harmonicMeanSpeed="12.32" length="5.00" nVehEntered="7"/>
    <interval begin="12600.00" end="12800.00" id="2_0_0" nVehContrib="5" flow="90.00" occupancy="0.94" speed="13.48" harmonicMeanSpeed="13.33" length="5.00" nVehEntered="5"/>
    <interval begin="12800.00" end="13000.00" id="2_0_0" nVehContrib="9" flow="162.00" occupancy="1.80" speed="12.65" harmonicMeanSpeed="12.51" length="5.00" nVehEntered="9"/>
    <interval begin="13000.00" end="13200.00" id="2_0_0" nVehContrib="0" flow="0.00" occupancy="0.00" speed="-1.00" harmonicMeanSpeed="-1.00" length="-1.00" nVehEntered="0"/>
    <interval begin="13200.00" end="13400.00" id="2_0_0" nVehContrib="2" flow="36.00" occupancy="0.40" speed="12.50" harmonicMeanSpeed="12.46" length="5.00" nVehEntered="2"/>
    <interval begin="13400.00" end="13600.00" id="2_0_0" nVehContrib="4" flow="72.00" occupancy="0.72" speed="13.92" harmonicMeanSpeed="13.80" length="5.00" nVehEntered="4"/>
    <interval begin="13600.00" end="13800.00" id="2_0_0" nVehContrib="14" flow="252.00" occupancy="3.12" speed="11.99" harmonicMeanSpeed="11.21" length="5.00" nVehEntered="14"/>
    <interval begin="13800.00" end="14000.00" id="2_0_0" nVehContrib="4" flow="72.00" occupancy="0.81" speed="12.42" harmonicMeanSpeed="12.35" length="5.00" nVehEntered="4"/>
    <interval begin="14000.00" end="14200.00" id="2_0_0" nVehContrib="4" flow="72.00" occupancy="0.84" speed="12.21" harmonicMeanSpeed="11.96" length="5.00" nVehEntered="4"/>
    <interval begin="14200.00" end="14400.00" id="2_0_0" nVehContrib="0" flow="0.00" occupancy="0.00" speed="-1.00" harmonicMeanSpeed="-1.00" length="-1.00" nVehEntered="0"/>
    <interval begin="14400.00" end="14600.00" id="2_0_0" nVehContrib="3" flow="54.00" occupancy="0.59" speed="12.77" harmonicMeanSpeed="12.75" length="5.00" nVehEntered="3"/>
    <interval begin="14600.00" end="14800.00" id="2_0_0" nVehContrib="5" flow="90.00" occupancy="1.00" speed="12.54" harmonicMeanSpeed="12.49" length="5.00" nVehEntered="5"/>
    <interval begin="14800.00" end="15000.00" id="2_0_0" nVehContrib="10" flow="180.00" occupancy="1.95" speed="13.03" harmonicMeanSpeed="12.83" length="5.00" nVehEntered="10"/>
    <interval begin="15000.00" end="15200.00" id="2_0_0" nVehContrib="3" flow="54.00" occupancy="0.54" speed="14.08" harmonicMeanSpeed="14.00" length="5.00" nVehEntered="3"/>
    <interval begin="15200.00" end="15400.00" id="2_0_0" nVehContrib="7" flow="126.00" occupancy="1.26" speed="14.15" harmonicMeanSpeed="13.91" length="5.00" nVehEntered="7"/>
    <interval begin="15400.00" end="15600.00" id="2_0_0" nVehContrib="9" flow="162.00" occupancy="1.73" speed="13.16" harmonicMeanSpeed="13.03" length="5.00" nVehEntered="9"/>
    <interval begin="15600.00" end="15800.00" id="2_0_0" nVehContrib="2" flow="36.00" occupancy="0.35" speed="14.44" harmonicMeanSpeed="14.38" length="5.00" nVehEntered="2"/>
    <interval begin="15800.00" end="16000.00" id="2_0_0" nVehContrib="12" flow="216.00" occupancy="2.47" speed="12.27" harmonicMeanSpeed="12.15" length="5.00" nVehEntered="12"/>
    <interval begin="16000.00" end="16200.00" id="2_0_0" nVehContrib="7" flow="126.00" occupancy="1.45" speed="12.44" harmonicMeanSpeed="12.08" length="5.00" nVehEntered="7"/>
    <interval begin="16200.00" end="16400.00" id="2_0_0" nVehContrib="2" flow="36.00" occupancy="0.41" speed="12.06" harmonicMeanSpeed="12.06" length="5.00" nVehEntered="2"/>
    <interval begin="16400.00" end="16600.00" id="2_0_0" nVehContrib="4" flow="72.00" occupancy="0.78" speed="12.77" harmonicMeanSpeed="12.76" length="5.00" nVehEntered="4"/>
    <interval begin="16600.00" end="16800.00" id="2_0_0" nVehContrib="8" flow="144.00" occupancy="1.65" speed="12.28" harmonicMeanSpeed="12.15" length="5.00" nVehEntered="8"/>
    <interval begin="16800.00" end="17000.00" id="2_0_0" nVehContrib="7" flow="126.00" occupancy="1.35" speed="13.14" harmonicMeanSpeed="13.00" length="5.00" nVehEntered="7"/>
    <interval begin="17000.00" end="17200.00" id="2_0_0" nVehContrib="0" flow="0.00" occupancy="0.00" speed="-1.00" harmonicMeanSpeed="-1.00" length="-1.00" nVehEntered="0"/>
    <interval begin="17200.00" end="17400.00" id="2_0_0" nVehContrib="3" flow="54.00" occupancy="0.58" speed="12.88" harmonicMeanSpeed="12.83" length="5.00" nVehEntered="3"/>
    <interval begin="17400.00" end="17600.00" id="2_0_0" nVehContrib="3" flow="54.00" occupancy="0.53" speed="14.26" harmonicMeanSpeed="14.26" length="5.00" nVehEntered="3"/>
    <interval begin="17600.00" end="17800.00" id="2_0_0" nVehContrib="11" flow="198.00" occupancy="2.22" speed="12.52" harmonicMeanSpeed="12.41" length="5.00" nVehEntered="11"/>
    <interval begin="17800.00" end="18000.00" id="2_0_0" nVehContrib="0" flow="0.00" occupancy="0.00" speed="-1.00" harmonicMeanSpeed="-1.00" length="-1.00" nVehEntered="0"/>
    <interval begin="18000.00" end="18200.00" id="2_0_0" nVehContrib="4" flow="72.00" occupancy="0.82" speed="12.38" harmonicMeanSpeed="12.17" length="5.00" nVehEntered="4"/>
    <interval begin="18200.00" end="18400.00" id="2_0_0" nVehContrib="7" flow="126.00" occupancy="1.35" speed="13.12" harmonicMeanSpeed="12.95" length="5.00" nVehEntered="7"/>
    <interval begin="18400.00" end="18600.00" id="2_0_0" nVehContrib="5" flow="90.00" occupancy="0.94" speed="13.48" harmonicMeanSpeed="13.26" length="5.00" nVehEntered="5"/>
    <interval begin="18600.00" end="18800.00" id="2_0_0" nVehContrib="0" flow="0.00" occupancy="0.00" speed="-1.00" harmonicMeanSpeed="-1.00" length="-1.00" nVehEntered="0"/>
    <interval begin="18800.00" end="19000.00" id="2_0_0" nVehContrib="6" flow="108.00" occupancy="1.10" speed="13.79" harmonicMeanSpeed="13.63" length="5.00" nVehEntered="6"/>
    <interval begin="19000.00" end="19200.00" id="2_0_0" nVehContrib="7" flow="126.00" occupancy="1.32" speed="13.38" harmonicMeanSpeed="13.29" length="5.00" nVehEntered="7"/>
    <interval begin="19200.00" end="19400.00" id="2_0_0" nVehContrib="4" flow="72.00" occupancy="0.82" speed="12.47" harmonicMeanSpeed="12.12" length="5.00" nVehEntered="4"/>
    <interval begin="19400.00" end="19600.00" id="2_0_0" nVehContrib="5" flow="90.00" occupancy="0.88" speed="14.32" harmonicMeanSpeed="14.17" length="5.00" nVehEntered="5"/>
    <interval begin="19600.00" end="19800.00" id="2_0_0" nVehContrib="7" flow="126.00" occupancy="1.30" speed="13.76" harmonicMeanSpeed="13.48" length="5.00" nVehEntered="7"/>
    <interval begin="19800.00" end="20000.00" id="2_0_0" nVehContrib="9" flow="162.00" occupancy="1.93" speed="11.94" harmonicMeanSpeed="11.64" length="5.00" nVehEntered="9"/>
    <interval begin="20000.00" end="20200.00" id="2_0_0" nVehContrib="0" flow="0.00" occupancy="0.00" speed="-1.00" harmonicMeanSpeed="-1.00" length="-1.00" nVehEntered="0"/>
    <interval begin="20200.00" end="20400.00" id="2_0_0" nVehContrib="4" flow="72.00" occupancy="0.72" speed="13.94" harmonicMeanSpeed="13.92" length="5.00" nVehEntered="4"/>
    <interval begin="20400.00" end="20600.00" id="2_0_0" nVehContrib="5" flow="90.00" occupancy="0.89" speed="14.19" harmonicMeanSpeed="14.10" length="5.00" nVehEntered="5"/>
    <interval begin="20600.00" end="20800.00" id="2_0_0" nVehContrib="5" flow="90.00" occupancy="1.06" speed="11.92" harmonicMeanSpeed="11.79" length="5.00" nVehEntered="5"/>
    <interval begin="20800.00" end="21000.00" id="2_0_0" nVehContrib="6" flow="108.00" occupancy="1.16" speed="13.08" harmonicMeanSpeed="12.92" length="5.00" nVehEntered="6"/>
    <interval begin="21000.00" end="21200.00" id="2_0_0" nVehContrib="0" flow="0.00" occupancy="0.00" speed="-1.00" harmonicMeanSpeed="-1.00" length="-1.00" nVehEntered="0"/>
    <interval begin="21200.00" end="21400.00" id="2_0_0" nVehContrib="5" flow="90.00" occupancy="0.98" speed="12.84" harmonicMeanSpeed="12.74" length="5.00" nVehEntered="5"/>
    <interval begin="21400.00" end="21600.00" id="2_0_0" nVehContrib="3" flow="54.00" occupancy="0.54" speed="13.98" harmonicMeanSpeed="13.97" length="5.00" nVehEntered="3"/>
    <interval begin="21600.00" end="21800.00" id="2_0_0" nVehContrib="5" flow="90.00" occupancy="1.03" speed="12.37" harmonicMeanSpeed="12.13" length="5.00" nVehEntered="5"/>
    <interval begin="21800.00" end="22000.00" id="2_0_0" nVehContrib="7" flow="126.00" occupancy="1.39" speed="12.99" harmonicMeanSpeed="12.58" length="5.00" nVehEntered="7"/>
    <interval begin="22000.00" end="22200.00" id="2_0_0" nVehContrib="5" flow="90.00" occupancy="0.91" speed="13.85" harmonicMeanSpeed="13.70" length="5.00" nVehEntered="5"/>
    <interval begin="22200.00" end="22400.00" id="2_0_0" nVehContrib="3" flow="54.00" occupancy="0.53" speed="14.33" harmonicMeanSpeed="14.23" length="5.00" nVehEntered="3"/>
    <interval begin="22400.00" end="22600.00" id="2_0_0" nVehContrib="0" flow="0.00" occupancy="0.00" speed="-1.00" harmonicMeanSpeed="-1.00" length="-1.00" nVehEntered="0"/>
    <interval begin="22600.00" end="22800.00" id="2_0_0" nVehContrib="11" flow="198.00" occupancy="2.14" speed="12.93" harmonicMeanSpeed="12.86" length="5.00" nVehEntered="11"/>
    <interval begin="22800.00" end="23000.00" id="2_0_0" nVehContrib="6" flow="108.00" occupancy="1.27" speed="11.82" harmonicMeanSpeed="11.81" length="5.00" nVehEntered="6"/>
    <interval begin="23000.00" end="23200.00" id="2_0_0" nVehContrib="2" flow="36.00" occupancy="0.40" speed="12.65" harmonicMeanSpeed="12.65" length="5.00" nVehEntered="2"/>
    <interval begin="23200.00" end="23400.00" id="2_0_0" nVehContrib="6" flow="108.00" occupancy="1.14" speed="13.24" harmonicMeanSpeed="13.16" length="5.00" nVehEntered="6"/>
    <interval begin="23400.00" end="23600.00" id="2_0_0" nVehContrib="7" flow="126.00" occupancy="1.56" speed="11.84" harmonicMeanSpeed="11.24" length="5.00" nVehEntered="7"/>
    <interval begin="23600.00" end="23800.00" id="2_0_0" nVehContrib="2" flow="36.00" occupancy="0.38" speed="13.01" harmonicMeanSpeed="13.00" length="5.00" nVehEntered="2"/>
    <interval begin="23800.00" end="24000.00" id="2_0_0" nVehContrib="4" flow="72.00" occupancy="0.75" speed="13.50" harmonicMeanSpeed="13.36" length="5.00" nVehEntered="4"/>
    <interval begin="24000.00" end="24200.00" id="2_0_0" nVehContrib="3" flow="54.00" occupancy="0.60" speed="12.73" harmonicMeanSpeed="12.48" length="5.00" nVehEntered="3"/>
    <interval begin="24200.00" end="24400.00" id="2_0_0" nVehContrib="5" flow="90.00" occupancy="1.00" speed="12.60" harmonicMeanSpeed="12.51" length="5.00" nVehEntered="5"/>
    <interval begin="24400.00" end="24600.00" id="2_0_0" nVehContrib="0" flow="0.00" occupancy="0.00" speed="-1.00" harmonicMeanSpeed="-1.00" length="-1.00" nVehEntered="0"/>
    <interval begin="24600.00" end="24800.00" id="2_0_0" nVehContrib="7" flow="126.00" occupancy="1.41" speed="12.49" harmonicMeanSpeed="12.39" length="5.00" nVehEntered="7"/>
    <interval begin="24800.00" end="25000.00" id="2_0_0" nVehContrib="4" flow="72.00" occupancy="0.72" speed="13.87" harmonicMeanSpeed="13.84" length="5.00" nVehEntered="4"/>
    <interval begin="25000.00" end="25200.00" id="2_0_0" nVehContrib="2" flow="36.00" occupancy="0.45" speed="11.46" harmonicMeanSpeed="11.14" length="5.00" nVehEntered="2"/>
    <interval begin="25200.00" end="25400.00" id="2_0_0" nVehContrib="10" flow="180.00" occupancy="1.98" speed="12.86" harmonicMeanSpeed="12.63" length="5.00" nVehEntered="10"/>
    <interval begin="25400.00" end="25600.00" id="2_0_0" nVehContrib="0" flow="0.00" occupancy="0.00" speed="-1.00" harmonicMeanSpeed="-1.00" length="-1.00" nVehEntered="0"/>
    <interval begin="25600.00" end="25800.00" id="2_0_0" nVehContrib="12" flow="216.00" occupancy="2.68" speed="11.66" harmonicMeanSpeed="11.21" length="5.00" nVehEntered="12"/>
    <interval begin="25800.00" end="26000.00" id="2_0_0" nVehContrib="3" flow="54.00" occupancy="0.58" speed="13.06" harmonicMeanSpeed="12.87" length="5.00" nVehEntered="3"/>
    <interval begin="26000.00" end="26200.00" id="2_0_0" nVehContrib="5" flow="90.00" occupancy="0.90" speed="14.03" harmonicMeanSpeed="13.86" length="5.00" nVehEntered="5"/>
    <interval begin="26200.00" end="26400.00" id="2_0_0" nVehContrib="6" flow="108.00" occupancy="1.07" speed="14.08" harmonicMeanSpeed="14.01" length="5.00" nVehEntered="6"/>
    <interval begin="26400.00" end="26600.00" id="2_0_0" nVehContrib="5" flow="90.00" occupancy="1.03" speed="12.63" harmonicMeanSpeed="12.09" length="5.00" nVehEntered="5"/>
    <interval begin="26600.00" end="26800.00" id="2_0_0" nVehContrib="8" flow="144.00" occupancy="1.61" speed="12.67" harmonicMeanSpeed="12.46" length="5.00" nVehEntered="8"/>
    <interval begin="26800.00" end="27000.00" id="2_0_0" nVehContrib="8" flow="144.00" occupancy="1.73" speed="12.13" harmonicMeanSpeed="11.59" length="5.00" nVehEntered="8"/>
    <interval begin="27000.00" end="27200.00" id="2_0_0" nVehContrib="6" flow="108.00" occupancy="1.19" speed="12.96" harmonicMeanSpeed="12.64" length="5.00" nVehEntered="6"/>
    <interval begin="27200.00" end="27400.00" id="2_0_0" nVehContrib="3" flow="54.00" occupancy="0.54" speed="13.84" harmonicMeanSpeed="13.84" length="5.00" nVehEntered="3"/>
    <interval begin="27400.00" end="27600.00" id="2_0_0" nVehContrib="8" flow="144.00" occupancy="1.52" speed="13.26" harmonicMeanSpeed="13.18" length="5.00" nVehEntered="8"/>
    <interval begin="27600.00" end="27800.00" id="2_0_0" nVehContrib="3" flow="54.00" occupancy="0.53" speed="14.22" harmonicMeanSpeed="14.16" length="5.00" nVehEntered="3"/>
    <interval begin="27800.00" end="28000.00" id="2_0_0" nVehContrib="0" flow="0.00" occupancy="0.00" speed="-1.00" harmonicMeanSpeed="-1.00" length="-1.00" nVehEntered="0"/>
    <interval begin="28000.00" end="28200.00" id="2_0_0" nVehContrib="13" flow="234.00" occupancy="2.53" speed="12.93" harmonicMeanSpeed="12.85" length="5.00" nVehEntered="13"/>
    <interval begin="28200.00" end="28400.00" id="2_0_0" nVehContrib="10" flow="180.00" occupancy="1.93" speed="13.09" harmonicMeanSpeed="12.96" length="5.00" nVehEntered="10"/>
    <interval begin="28400.00" end="28600.00" id="2_0_0" nVehContrib="0" flow="0.00" occupancy="0.00" speed="-1.00" harmonicMeanSpeed="-1.00" length="-1.00" nVehEntered="0"/>
    <interval begin="28600.00" end="28800.00" id="2_0_0" nVehContrib="4" flow="72.00" occupancy="0.76" speed="13.36" harmonicMeanSpeed="13.22" length="5.00" nVehEntered="4"/>
    <interval begin="28800.00" end="29000.00" id="2_0_0" nVehContrib="3" flow="54.00" occupancy="0.61" speed="12.57" harmonicMeanSpeed="12.35" length="5.00" nVehEntered="3"/>
    <interval begin="29000.00" end="29200.00" id="2_0_0" nVehContrib="5" flow="90.00" occupancy="0.93" speed="13.38" harmonicMeanSpeed="13.37" length="5.00" nVehEntered="5"/>
    <interval begin="29200.00" end="29400.00" id="2_0_0" nVehContrib="3" flow="54.00" occupancy="0.60" speed="12.44" harmonicMeanSpeed="12.42" length="5.00" nVehEntered="3"/>
    <interval begin="29400.00" end="29600.00" id="2_0_0" nVehContrib="6" flow="108.00" occupancy="1.26" speed="12.16" harmonicMeanSpeed="11.91" length="5.00" nVehEntered="6"/>
    <interval begin="29600.00" end="29800.00" id="2_0_0" nVehContrib="1" flow="18.00" occupancy="0.21" speed="12.01" harmonicMeanSpeed="12.01" length="5.00" nVehEntered="1"/>
    <interval begin="29800.00" end="30000.00" id="2_0_0" nVehContrib="4" flow="72.00" occupancy="1.15" speed="12.36" harmonicMeanSpeed="12.20" length="5.00" nVehEntered="5"/>
    <interval begin="30000.00" end="30200.00" id="2_0_0" nVehContrib="6" flow="108.00" occupancy="1.10" speed="13.79" harmonicMeanSpeed="13.59" length="5.00" nVehEntered="6"/>
    <interval begin="30200.00" end="30400.00" id="2_0_0" nVehContrib="3" flow="54.00" occupancy="0.56" speed="13.50" harmonicMeanSpeed="13.49" length="5.00" nVehEntered="3"/>
    <interval begin="30400.00" end="30600.00" id="2_0_0" nVehContrib="9" flow="162.00" occupancy="2.28" speed="10.59" harmonicMeanSpeed="9.87" length="5.00" nVehEntered="9"/>
    <interval begin="30600.00" end="30800.00" id="2_0_0" nVehContrib="4" flow="72.00" occupancy="0.78" speed="12.96" harmonicMeanSpeed="12.75" length="5.00" nVehEntered="4"/>
    <interval begin="30800.00" end="31000.00" id="2_0_0" nVehContrib="8" flow="144.00" occupancy="1.56" speed="13.02" harmonicMeanSpeed="12.81" length="5.00" nVehEntered="8"/>
    <interval begin="31000.00" end="31200.00" id="2_0_0" nVehContrib="7" flow="126.00" occupancy="1.32" speed="13.48" harmonicMeanSpeed="13.27" length="5.00" nVehEntered="7"/>
    <interval begin="31200.00" end="31400.00" id="2_0_0" nVehContrib="4" flow="72.00" occupancy="0.71" speed="14.09" harmonicMeanSpeed="14.05" length="5.00" nVehEntered="4"/>
    <interval begin="31400.00" end="31600.00" id="2_0_0" nVehContrib="6" flow="108.00" occupancy="1.13" speed="13.40" harmonicMeanSpeed="13.23" length="5.00" nVehEntered="6"/>
    <interval begin="31600.00" end="31800.00" id="2_0_0" nVehContrib="4" flow="72.00" occupancy="0.76" speed="13.22" harmonicMeanSpeed="13.20" length="5.00" nVehEntered="4"/>
    <interval begin="31800.00" end="32000.00" id="2_0_0" nVehContrib="2" flow="36.00" occupancy="0.36" speed="13.85" harmonicMeanSpeed="13.77" length="5.00" nVehEntered="2"/>
    <interval begin="32000.00" end="32200.00" id="2_0_0" nVehContrib="10" flow="180.00" occupancy="1.94" speed="12.98" harmonicMeanSpeed="12.89" length="5.00" nVehEntered="10"/>
    <interval begin="32200.00" end="32400.00" id="2_0_0" nVehContrib="5" flow="90.00" occupancy="0.93" speed="13.56" harmonicMeanSpeed="13.46" length="5.00" nVehEntered="5"/>
    <interval begin="32400.00" end="32600.00" id="2_0_0" nVehContrib="6" flow="108.00" occupancy="1.26" speed="12.38" harmonicMeanSpeed="11.88" length="5.00" nVehEntered="6"/>
    <interval begin="32600.00" end="32800.00" id="2_0_0" nVehContrib="5" flow="90.00" occupancy="1.06" speed="12.06" harmonicMeanSpeed="11.84" length="5.00" nVehEntered="5"/>