<?xml version="1.0" encoding="UTF-8"?>

<!-- generated on 2022-06-22 11:49:22 by Eclipse SUMO GUI Version 1.12.0
<configuration xmlns:xsi="http://www.w3.org/2001/XMLSchema-instance" xsi:noNamespaceSchemaLocation="http://sumo.dlr.de/xsd/sumoConfiguration.xsd">

    <input>
        <net-file value="data/cross.net.xml"/>
        <route-files value="data/cross.rou.xml"/>
        <additional-files value="data/cross.det.xml"/>
    </input>

    <output>
        <tripinfo-output value="tripinfo.xml"/>
    </output>

    <time>
        <begin value="0"/>
    </time>

    <report>
        <verbose value="true"/>
        <no-step-log value="true"/>
    </report>

    <traci_server>
        <remote-port value="54106"/>
    </traci_server>

</configuration>
-->

<tripinfos xmlns:xsi="http://www.w3.org/2001/XMLSchema-instance" xsi:noNamespaceSchemaLocation="http://sumo.dlr.de/xsd/tripinfo_file.xsd">
    <tripinfo id="right_0" depart="2.00" departLane="51o_0" departPos="5.10" departSpeed="0.00" departDelay="0.00" arrival="90.00" arrivalLane="52i_0" arrivalPos="10.00" arrivalSpeed="11.58" duration="88.00" routeLength="1015.10" waitingTime="0.00" waitingCount="0" stopTime="0.00" timeLoss="14.49" rerouteNo="0" devices="tripinfo_right_0" vType="typeWE" speedFactor="1.06" vaporized=""/>
    <tripinfo id="left_1" depart="20.00" departLane="52o_0" departPos="5.10" departSpeed="0.00" departDelay="0.00" arrival="114.00" arrivalLane="51i_0" arrivalPos="10.00" arrivalSpeed="10.84" duration="94.00" routeLength="1015.10" waitingTime="0.00" waitingCount="0" stopTime="0.00" timeLoss="14.90" rerouteNo="0" devices="tripinfo_left_1" vType="typeWE" speedFactor="0.94" vaporized=""/>
    <tripinfo id="left_2" depart="39.00" departLane="52o_0" departPos="5.10" departSpeed="0.00" departDelay="0.00" arrival="130.00" arrivalLane="51i_0" arrivalPos="10.00" arrivalSpeed="11.74" duration="91.00" routeLength="1015.10" waitingTime="0.00" waitingCount="0" stopTime="0.00" timeLoss="14.78" rerouteNo="0" devices="tripinfo_left_2" vType="typeWE" speedFactor="1.01" vaporized=""/>
    <tripinfo id="down_3" depart="43.00" departLane="54o_0" departPos="7.10" departSpeed="0.00" departDelay="0.00" arrival="141.00" arrivalLane="53i_0" arrivalPos="10.00" arrivalSpeed="12.24" duration="98.00" routeLength="1013.10" waitingTime="1.00" waitingCount="1" stopTime="0.00" timeLoss="32.03" rerouteNo="0" devices="tripinfo_down_3" vType="typeNS" speedFactor="1.08" vaporized=""/>
    <tripinfo id="down_12" depart="75.00" departLane="54o_0" departPos="7.10" departSpeed="0.00" departDelay="0.00" arrival="161.00" arrivalLane="53i_0" arrivalPos="10.00" arrivalSpeed="11.95" duration="86.00" routeLength="1013.10" waitingTime="0.00" waitingCount="0" stopTime="0.00" timeLoss="17.42" rerouteNo="0" devices="tripinfo_down_12" vType="typeNS" speedFactor="1.05" vaporized=""/>
    <tripinfo id="left_4" depart="46.00" departLane="52o_0" departPos="5.10" departSpeed="0.00" departDelay="0.00" arrival="181.00" arrivalLane="51i_0" arrivalPos="10.00" arrivalSpeed="12.03" duration="135.00" routeLength="1015.10" waitingTime="33.00" waitingCount="1" stopTime="0.00" timeLoss="60.37" rerouteNo="0" devices="tripinfo_left_4" vType="typeWE" speedFactor="1.03" vaporized=""/>
    <tripinfo id="down_13" depart="81.00" departLane="54o_0" departPos="7.10" departSpeed="0.00" departDelay="5.00" arrival="186.00" arrivalLane="53i_0" arrivalPos="10.00" arrivalSpeed="12.60" duration="105.00" routeLength="1013.10" waitingTime="10.00" waitingCount="1" stopTime="0.00" timeLoss="41.35" rerouteNo="0" devices="tripinfo_down_13" vType="typeNS" speedFactor="1.12" vaporized=""/>
    <tripinfo id="right_5" depart="51.00" departLane="51o_0" departPos="5.10" departSpeed="0.00" departDelay="0.00" arrival="190.00" arrivalLane="52i_0" arrivalPos="10.00" arrivalSpeed="9.34" duration="139.00" routeLength="1015.10" waitingTime="29.00" waitingCount="1" stopTime="0.00" timeLoss="52.50" rerouteNo="0" devices="tripinfo_right_5" vType="typeWE" speedFactor="0.83" vaporized=""/>
    <tripinfo id="down_16" depart="87.00" departLane="54o_0" departPos="7.10" departSpeed="0.00" departDelay="6.00" arrival="198.00" arrivalLane="53i_0" arrivalPos="10.00" arrivalSpeed="10.28" duration="111.00" routeLength="1013.10" waitingTime="4.00" waitingCount="1" stopTime="0.00" timeLoss="29.93" rerouteNo="0" devices="tripinfo_down_16" vType="typeNS" speedFactor="0.88" vaporized=""/>
    <tripinfo id="right_6" depart="56.00" departLane="51o_0" departPos="5.10" departSpeed="0.00" departDelay="3.00" arrival="226.00" arrivalLane="52i_0" arrivalPos="10.00" arrivalSpeed="11.86" duration="170.00" routeLength="1015.10" waitingTime="61.00" waitingCount="2" stopTime="0.00" timeLoss="95.89" rerouteNo="0" devices="tripinfo_right_6" vType="typeWE" speedFactor="1.05" vaporized=""/>
    <tripinfo id="right_8" depart="61.00" departLane="51o_0" departPos="5.10" departSpeed="0.00" departDelay="2.00" arrival="232.00" arrivalLane="52i_0" arrivalPos="10.00" arrivalSpeed="10.86" duration="171.00" routeLength="1015.10" waitingTime="58.00" waitingCount="2" stopTime="0.00" timeLoss="92.01" rerouteNo="0" devices="tripinfo_right_8" vType="typeWE" speedFactor="0.94" vaporized=""/>
    <tripinfo id="left_7" depart="54.00" departLane="52o_0" departPos="5.10" departSpeed="0.00" departDelay="0.00" arrival="233.00" arrivalLane="51i_0" arrivalPos="10.00" arrivalSpeed="10.48" duration="179.00" routeLength="1015.10" waitingTime="64.00" waitingCount="2" stopTime="0.00" timeLoss="96.68" rerouteNo="0" devices="tripinfo_left_7" vType="typeWE" speedFactor="0.89" vaporized=""/>
    <tripinfo id="left_10" depart="70.00" departLane="52o_0" departPos="5.10" departSpeed="0.00" departDelay="0.00" arrival="234.00" arrivalLane="51i_0" arrivalPos="10.00" arrivalSpeed="10.36" duration="164.00" routeLength="1015.10" waitingTime="51.00" waitingCount="2" stopTime="0.00" timeLoss="91.98" rerouteNo="0" devices="tripinfo_left_10" vType="typeWE" speedFactor="1.09" vaporized=""/>
    <tripinfo id="left_15" depart="81.00" departLane="52o_0" departPos="5.10" departSpeed="0.00" departDelay="0.00" arrival="236.00" arrivalLane="51i_0" arrivalPos="10.00" arrivalSpeed="10.61" duration="155.00" routeLength="1015.10" waitingTime="41.00" waitingCount="2" stopTime="0.00" timeLoss="75.47" rerouteNo="0" devices="tripinfo_left_15" vType="typeWE" speedFactor="0.93" vaporized=""/>
    <tripinfo id="right_9" depart="66.00" departLane="51o_0" departPos="5.10" departSpeed="0.00" departDelay="5.00" arrival="238.00" arrivalLane="52i_0" arrivalPos="10.00" arrivalSpeed="10.13" duration="172.00" routeLength="1015.10" waitingTime="55.00" waitingCount="2" stopTime="0.00" timeLoss="88.61" rerouteNo="0" devices="tripinfo_right_9" vType="typeWE" speedFactor="0.86" vaporized=""/>
    <tripinfo id="left_17" depart="86.00" departLane="52o_0" departPos="5.10" departSpeed="0.00" departDelay="4.00" arrival="238.00" arrivalLane="51i_0" arrivalPos="10.00" arrivalSpeed="11.15" duration="152.00" routeLength="1015.10" waitingTime="38.00" waitingCount="1" stopTime="0.00" timeLoss="73.01" rerouteNo="0" devices="tripinfo_left_17" vType="typeWE" speedFactor="0.94" vaporized=""/>
    <tripinfo id="right_11" depart="73.00" departLane="51o_0" departPos="5.10" departSpeed="0.00" departDelay="0.00" arrival="240.00" arrivalLane="52i_0" arrivalPos="10.00" arrivalSpeed="10.65" duration="167.00" routeLength="1015.10" waitingTime="50.00" waitingCount="2" stopTime="0.00" timeLoss="92.06" rerouteNo="0" devices="tripinfo_right_11" vType="typeWE" speedFactor="1.03" vaporized=""/>
    <tripinfo id="left_18" depart="91.00" departLane="52o_0" departPos="5.10" departSpeed="0.00" departDelay="4.00" arrival="240.00" arrivalLane="51i_0" arrivalPos="10.00" arrivalSpeed="10.86" duration="149.00" routeLength="1015.10" waitingTime="38.00" waitingCount="1" stopTime="0.00" timeLoss="69.65" rerouteNo="0" devices="tripinfo_left_18" vType="typeWE" speedFactor="0.94" vaporized=""/>
    <tripinfo id="right_14" depart="79.00" departLane="51o_0" departPos="5.10" departSpeed="0.00" departDelay="0.00" arrival="242.00" arrivalLane="52i_0" arrivalPos="10.00" arrivalSpeed="11.05" duration="163.00" routeLength="1015.10" waitingTime="45.00" waitingCount="2" stopTime="0.00" timeLoss="86.20" rerouteNo="0" devices="tripinfo_right_14" vType="typeWE" speedFactor="0.99" vaporized=""/>
    <tripinfo id="left_20" depart="99.00" departLane="52o_0" departPos="5.10" departSpeed="0.00" departDelay="0.00" arrival="242.00" arrivalLane="51i_0" arrivalPos="10.00" arrivalSpeed="11.57" duration="143.00" routeLength="1015.10" waitingTime="34.00" waitingCount="1" stopTime="0.00" timeLoss="67.20" rerouteNo="0" devices="tripinfo_left_20" vType="typeWE" speedFactor="1.02" vaporized=""/>
    <tripinfo id="left_22" depart="104.00" departLane="52o_0" departPos="5.10" departSpeed="0.00" departDelay="3.00" arrival="243.00" arrivalLane="51i_0" arrivalPos="10.00" arrivalSpeed="11.01" duration="139.00" routeLength="1015.10" waitingTime="30.00" waitingCount="1" stopTime="0.00" timeLoss="62.01" rerouteNo="0" devices="tripinfo_left_22" vType="typeWE" speedFactor="0.98" vaporized=""/>
    <tripinfo id="right_19" depart="88.00" departLane="51o_0" departPos="5.10" departSpeed="0.00" departDelay="0.00" arrival="244.00" arrivalLane="52i_0" arrivalPos="10.00" arrivalSpeed="11.69" duration="156.00" routeLength="1015.10" waitingTime="36.00" waitingCount="2" stopTime="0.00" timeLoss="85.66" rerouteNo="0" devices="tripinfo_right_19" vType="typeWE" speedFactor="1.16" vaporized=""/>
    <tripinfo id="right_21" depart="101.00" departLane="51o_0" departPos="5.10" departSpeed="0.00" departDelay="0.00" arrival="245.00" arrivalLane="52i_0" arrivalPos="10.00" arrivalSpeed="11.69" duration="144.00" routeLength="1015.10" waitingTime="34.00" waitingCount="1" stopTime="0.00" timeLoss="68.51" rerouteNo="0" devices="tripinfo_right_21" vType="typeWE" speedFactor="1.01" vaporized=""/>
    <tripinfo id="left_23" depart="110.00" departLane="52o_0" departPos="5.10" departSpeed="0.00" departDelay="1.00" arrival="247.00" arrivalLane="51i_0" arrivalPos="10.00" arrivalSpeed="10.40" duration="137.00" routeLength="1015.10" waitingTime="27.00" waitingCount="1" stopTime="0.00" timeLoss="55.37" rerouteNo="0" devices="tripinfo_left_23" vType="typeWE" speedFactor="0.89" vaporized=""/>
    <tripinfo id="left_25" depart="115.00" departLane="52o_0" departPos="5.10" departSpeed="0.00" departDelay="3.00" arrival="250.00" arrivalLane="51i_0" arrivalPos="10.00" arrivalSpeed="10.09" duration="135.00" routeLength="1015.10" waitingTime="23.00" waitingCount="1" stopTime="0.00" timeLoss="52.49" rerouteNo="0" devices="tripinfo_left_25" vType="typeWE" speedFactor="0.87" vaporized=""/>
    <tripinfo id="right_24" depart="110.00" departLane="51o_0" departPos="5.10" departSpeed="0.00" departDelay="0.00" arrival="251.00" arrivalLane="52i_0" arrivalPos="10.00" arrivalSpeed="9.59" duration="141.00" routeLength="1015.10" waitingTime="25.00" waitingCount="1" stopTime="0.00" timeLoss="53.61" rerouteNo="0" devices="tripinfo_right_24" vType="typeWE" speedFactor="0.83" vaporized=""/>
    <tripinfo id="left_26" depart="120.00" departLane="52o_0" departPos="5.10" departSpeed="0.00" departDelay="4.00" arrival="252.00" arrivalLane="51i_0" arrivalPos="10.00" arrivalSpeed="10.38" duration="132.00" routeLength="1015.10" waitingTime="19.00" waitingCount="1" stopTime="0.00" timeLoss="51.82" rerouteNo="0" devices="tripinfo_left_26" vType="typeWE" speedFactor="0.92" vaporized=""/>
    <tripinfo id="right_28" depart="122.00" departLane="51o_0" departPos="5.10" departSpeed="0.00" departDelay="0.00" arrival="253.00" arrivalLane="52i_0" arrivalPos="10.00" arrivalSpeed="10.06" duration="131.00" routeLength="1015.10" waitingTime="16.00" waitingCount="1" stopTime="0.00" timeLoss="59.80" rerouteNo="0" devices="tripinfo_right_28" vType="typeWE" speedFactor="1.13" vaporized=""/>
    <tripinfo id="left_27" depart="125.00" departLane="52o_0" departPos="5.10" departSpeed="0.00" departDelay="8.00" arrival="254.00" arrivalLane="51i_0" arrivalPos="10.00" arrivalSpeed="10.80" duration="129.00" routeLength="1015.10" waitingTime="16.00" waitingCount="1" stopTime="0.00" timeLoss="50.21" rerouteNo="0" devices="tripinfo_left_27" vType="typeWE" speedFactor="0.95" vaporized=""/>
    <tripinfo id="right_29" depart="143.00" departLane="51o_0" departPos="5.10" departSpeed="0.00" departDelay="0.00" arrival="254.00" arrivalLane="52i_0" arrivalPos="10.00" arrivalSpeed="9.58" duration="111.00" routeLength="1015.10" waitingTime="0.00" waitingCount="0" stopTime="0.00" timeLoss="31.91" rerouteNo="0" devices="tripinfo_right_29" vType="typeWE" speedFactor="0.93" vaporized=""/>
    <tripinfo id="right_30" depart="148.00" departLane="51o_0" departPos="5.10" departSpeed="0.00" departDelay="4.00" arrival="256.00" arrivalLane="52i_0" arrivalPos="10.00" arrivalSpeed="10.17" duration="108.00" routeLength="1015.10" waitingTime="0.00" waitingCount="0" stopTime="0.00" timeLoss="38.89" rerouteNo="0" devices="tripinfo_right_30" vType="typeWE" speedFactor="1.18" vaporized=""/>
    <tripinfo id="left_31" depart="145.00" departLane="52o_0" departPos="5.10" departSpeed="0.00" departDelay="0.00" arrival="256.00" arrivalLane="51i_0" arrivalPos="10.00" arrivalSpeed="11.39" duration="111.00" routeLength="1015.10" waitingTime="0.00" waitingCount="0" stopTime="0.00" timeLoss="40.57" rerouteNo="0" devices="tripinfo_left_31" vType="typeWE" speedFactor="1.15" vaporized=""/>
    <tripinfo id="right_32" depart="153.00" departLane="51o_0" departPos="5.10" departSpeed="0.00" departDelay="7.00" arrival="258.00" arrivalLane="52i_0" arrivalPos="10.00" arrivalSpeed="10.75" duration="105.00" routeLength="1015.10" waitingTime="0.00" waitingCount="0" stopTime="0.00" timeLoss="29.15" rerouteNo="0" devices="tripinfo_right_32" vType="typeWE" speedFactor="1.01" vaporized=""/>
    <tripinfo id="right_33" depart="159.00" departLane="51o_0" departPos="5.10" departSpeed="0.00" departDelay="11.00" arrival="260.00" arrivalLane="52i_0" arrivalPos="10.00" arrivalSpeed="11.07" duration="101.00" routeLength="1015.10" waitingTime="0.00" waitingCount="0" stopTime="0.00" timeLoss="31.39" rerouteNo="0" devices="tripinfo_right_33" vType="typeWE" speedFactor="1.17" vaporized=""/>
    <tripinfo id="right_34" depart="164.00" departLane="51o_0" departPos="5.10" departSpeed="0.00" departDelay="15.00" arrival="262.00" arrivalLane="52i_0" arrivalPos="10.00" arrivalSpeed="11.44" duration="98.00" routeLength="1015.10" waitingTime="0.00" waitingCount="0" stopTime="0.00" timeLoss="21.29" rerouteNo="0" devices="tripinfo_right_34" vType="typeWE" speedFactor="0.99" vaporized=""/>
    <tripinfo id="right_35" depart="169.00" departLane="51o_0" departPos="5.10" departSpeed="0.00" departDelay="4.00" arrival="263.00" arrivalLane="52i_0" arrivalPos="10.00" arrivalSpeed="11.16" duration="94.00" routeLength="1015.10" waitingTime="0.00" waitingCount="0" stopTime="0.00" timeLoss="18.99" rerouteNo="0" devices="tripinfo_right_35" vType="typeWE" speedFactor="1.02" vaporized=""/>
    <tripinfo id="left_36" depart="180.00" departLane="52o_0" departPos="5.10" departSpeed="0.00" departDelay="0.00" arrival="274.00" arrivalLane="51i_0" arrivalPos="10.00" arrivalSpeed="10.86" duration="94.00" routeLength="1015.10" waitingTime="0.00" waitingCount="0" stopTime="0.00" timeLoss="16.89" rerouteNo="0" devices="tripinfo_left_36" vType="typeWE" speedFactor="0.97" vaporized=""/>
    <tripinfo id="right_38" depart="188.00" departLane="51o_0" departPos="5.10" departSpeed="0.00" departDelay="0.00" arrival="274.00" arrivalLane="52i_0" arrivalPos="10.00" arrivalSpeed="12.02" duration="86.00" routeLength="1015.10" waitingTime="0.00" waitingCount="0" stopTime="0.00" timeLoss="13.99" rerouteNo="0" devices="tripinfo_right_38" vType="typeWE" speedFactor="1.10" vaporized=""/>
    <tripinfo id="left_37" depart="187.00" departLane="52o_0" departPos="5.10" departSpeed="0.00" departDelay="0.00" arrival="276.00" arrivalLane="51i_0" arrivalPos="10.00" arrivalSpeed="11.24" duration="89.00" routeLength="1015.10" waitingTime="0.00" waitingCount="0" stopTime="0.00" timeLoss="19.57" rerouteNo="0" devices="tripinfo_left_37" vType="typeWE" speedFactor="1.18" vaporized=""/>
    <tripinfo id="right_39" depart="193.00" departLane="51o_0" departPos="5.10" departSpeed="0.00" departDelay="0.00" arrival="289.00" arrivalLane="52i_0" arrivalPos="10.00" arrivalSpeed="10.56" duration="96.00" routeLength="1015.10" waitingTime="0.00" waitingCount="0" stopTime="0.00" timeLoss="15.06" rerouteNo="0" devices="tripinfo_right_39" vType="typeWE" speedFactor="0.90" vaporized=""/>
    <tripinfo id="right_40" depart="198.00" departLane="51o_0" departPos="5.10" departSpeed="0.00" departDelay="0.00" arrival="291.00" arrivalLane="52i_0" arrivalPos="10.00" arrivalSpeed="11.03" duration="93.00" routeLength="1015.10" waitingTime="0.00" waitingCount="0" stopTime="0.00" timeLoss="18.11" rerouteNo="0" devices="tripinfo_right_40" vType="typeWE" speedFactor="1.03" vaporized=""/>
    <tripinfo id="right_41" depart="203.00" departLane="51o_0" departPos="5.10" departSpeed="0.00" departDelay="3.00" arrival="297.00" arrivalLane="52i_0" arrivalPos="10.00" arrivalSpeed="10.99" duration="94.00" routeLength="1015.10" waitingTime="1.00" waitingCount="1" stopTime="0.00" timeLoss="16.01" rerouteNo="0" devices="tripinfo_right_41" vType="typeWE" speedFactor="0.96" vaporized=""/>
    <tripinfo id="down_42" depart="213.00" departLane="54o_0" departPos="7.10" departSpeed="0.00" departDelay="0.00" arrival="310.00" arrivalLane="53i_0" arrivalPos="10.00" arrivalSpeed="12.35" duration="97.00" routeLength="1013.10" waitingTime="1.00" waitingCount="1" stopTime="0.00" timeLoss="31.52" rerouteNo="0" devices="tripinfo_down_42" vType="typeNS" speedFactor="1.09" vaporized=""/>
    <tripinfo id="down_50" depart="253.00" departLane="54o_0" departPos="7.10" departSpeed="0.00" departDelay="0.00" arrival="364.00" arrivalLane="53i_0" arrivalPos="10.00" arrivalSpeed="10.07" duration="111.00" routeLength="1013.10" waitingTime="2.00" waitingCount="1" stopTime="0.00" timeLoss="27.58" rerouteNo="0" devices="tripinfo_down_50" vType="typeNS" speedFactor="0.85" vaporized=""/>
    <tripinfo id="left_43" depart="216.00" departLane="52o_0" departPos="5.10" departSpeed="0.00" departDelay="0.00" arrival="392.00" arrivalLane="51i_0" arrivalPos="10.00" arrivalSpeed="11.90" duration="176.00" routeLength="1015.10" waitingTime="75.00" waitingCount="2" stopTime="0.00" timeLoss="101.67" rerouteNo="0" devices="tripinfo_left_43" vType="typeWE" speedFactor="1.04" vaporized=""/>
    <tripinfo id="right_44" depart="234.00" departLane="51o_0" departPos="5.10" departSpeed="0.00" departDelay="1.00" arrival="393.00" arrivalLane="52i_0" arrivalPos="10.00" arrivalSpeed="12.00" duration="159.00" routeLength="1015.10" waitingTime="57.00" waitingCount="2" stopTime="0.00" timeLoss="84.72" rerouteNo="0" devices="tripinfo_right_44" vType="typeWE" speedFactor="1.04" vaporized=""/>
    <tripinfo id="left_45" depart="240.00" departLane="52o_0" departPos="5.10" departSpeed="0.00" departDelay="0.00" arrival="394.00" arrivalLane="51i_0" arrivalPos="10.00" arrivalSpeed="12.37" duration="154.00" routeLength="1015.10" waitingTime="52.00" waitingCount="2" stopTime="0.00" timeLoss="81.35" rerouteNo="0" devices="tripinfo_left_45" vType="typeWE" speedFactor="1.09" vaporized=""/>
    <tripinfo id="left_46" depart="245.00" departLane="52o_0" departPos="5.10" departSpeed="0.00" departDelay="1.00" arrival="399.00" arrivalLane="51i_0" arrivalPos="10.00" arrivalSpeed="11.50" duration="154.00" routeLength="1015.10" waitingTime="47.00" waitingCount="2" stopTime="0.00" timeLoss="77.34" rerouteNo="0" devices="tripinfo_left_46" vType="typeWE" speedFactor="1.00" vaporized=""/>
    <tripinfo id="right_48" depart="248.00" departLane="51o_0" departPos="5.10" departSpeed="0.00" departDelay="0.00" arrival="403.00" arrivalLane="52i_0" arrivalPos="10.00" arrivalSpeed="10.11" duration="155.00" routeLength="1015.10" waitingTime="43.00" waitingCount="2" stopTime="0.00" timeLoss="72.85" rerouteNo="0" devices="tripinfo_right_48" vType="typeWE" speedFactor="0.88" vaporized=""/>
    <tripinfo id="right_52" depart="256.00" departLane="51o_0" departPos="5.10" departSpeed="0.00" departDelay="1.00" arrival="405.00" arrivalLane="52i_0" arrivalPos="10.00" arrivalSpeed="10.80" duration="149.00" routeLength="1015.10" waitingTime="38.00" waitingCount="1" stopTime="0.00" timeLoss="73.60" rerouteNo="0" devices="tripinfo_right_52" vType="typeWE" speedFactor="1.02" vaporized=""/>
    <tripinfo id="down_60" depart="310.00" departLane="54o_0" departPos="7.10" departSpeed="0.00" departDelay="0.00" arrival="409.00" arrivalLane="53i_0" arrivalPos="10.00" arrivalSpeed="12.54" duration="99.00" routeLength="1013.10" waitingTime="2.00" waitingCount="1" stopTime="0.00" timeLoss="32.60" rerouteNo="0" devices="tripinfo_down_60" vType="typeNS" speedFactor="1.08" vaporized=""/>
    <tripinfo id="down_65" depart="319.00" departLane="54o_0" departPos="7.10" departSpeed="0.00" departDelay="0.00" arrival="419.00" arrivalLane="53i_0" arrivalPos="10.00" arrivalSpeed="10.18" duration="100.00" routeLength="1013.10" waitingTime="0.00" waitingCount="0" stopTime="0.00" timeLoss="18.79" rerouteNo="0" devices="tripinfo_down_65" vType="typeNS" speedFactor="0.88" vaporized=""/>
    <tripinfo id="down_67" depart="330.00" departLane="54o_0" departPos="7.10" departSpeed="0.00" departDelay="0.00" arrival="424.00" arrivalLane="53i_0" arrivalPos="10.00" arrivalSpeed="10.34" duration="94.00" routeLength="1013.10" waitingTime="0.00" waitingCount="0" stopTime="0.00" timeLoss="15.56" rerouteNo="0" devices="tripinfo_down_67" vType="typeNS" speedFactor="0.91" vaporized=""/>
    <tripinfo id="right_53" depart="261.00" departLane="51o_0" departPos="5.10" departSpeed="0.00" departDelay="2.00" arrival="446.00" arrivalLane="52i_0" arrivalPos="10.00" arrivalSpeed="12.95" duration="185.00" routeLength="1015.10" waitingTime="75.00" waitingCount="2" stopTime="0.00" timeLoss="112.45" rerouteNo="0" devices="tripinfo_right_53" vType="typeWE" speedFactor="1.10" vaporized=""/>
    <tripinfo id="right_54" depart="266.00" departLane="51o_0" departPos="5.10" departSpeed="0.00" departDelay="4.00" arrival="451.00" arrivalLane="52i_0" arrivalPos="10.00" arrivalSpeed="11.67" duration="185.00" routeLength="1015.10" waitingTime="72.00" waitingCount="2" stopTime="0.00" timeLoss="109.00" rerouteNo="0" devices="tripinfo_right_54" vType="typeWE" speedFactor="1.00" vaporized=""/>
    <tripinfo id="left_47" depart="251.00" departLane="52o_0" departPos="5.10" departSpeed="0.00" departDelay="6.00" arrival="453.00" arrivalLane="51i_0" arrivalPos="10.00" arrivalSpeed="10.34" duration="202.00" routeLength="1015.10" waitingTime="85.00" waitingCount="3" stopTime="0.00" timeLoss="120.60" rerouteNo="0" devices="tripinfo_left_47" vType="typeWE" speedFactor="0.90" vaporized=""/>
    <tripinfo id="right_62" depart="316.00" departLane="51o_0" departPos="5.10" departSpeed="0.00" departDelay="0.00" arrival="453.00" arrivalLane="52i_0" arrivalPos="10.00" arrivalSpeed="11.85" duration="137.00" routeLength="1015.10" waitingTime="34.00" waitingCount="1" stopTime="0.00" timeLoss="61.29" rerouteNo="0" devices="tripinfo_right_62" vType="typeWE" speedFactor="1.02" vaporized=""/>
    <tripinfo id="right_63" depart="321.00" departLane="51o_0" departPos="5.10" departSpeed="0.00" departDelay="4.00" arrival="455.00" arrivalLane="52i_0" arrivalPos="10.00" arrivalSpeed="11.63" duration="134.00" routeLength="1015.10" waitingTime="31.00" waitingCount="1" stopTime="0.00" timeLoss="57.44" rerouteNo="0" devices="tripinfo_right_63" vType="typeWE" speedFactor="0.99" vaporized=""/>
    <tripinfo id="left_49" depart="256.00" departLane="52o_0" departPos="5.10" departSpeed="0.00" departDelay="4.00" arrival="458.00" arrivalLane="51i_0" arrivalPos="10.00" arrivalSpeed="10.11" duration="202.00" routeLength="1015.10" waitingTime="83.00" waitingCount="2" stopTime="0.00" timeLoss="117.41" rerouteNo="0" devices="tripinfo_left_49" vType="typeWE" speedFactor="0.85" vaporized=""/>
    <tripinfo id="left_51" depart="263.00" departLane="52o_0" departPos="5.10" departSpeed="0.00" departDelay="9.00" arrival="460.00" arrivalLane="51i_0" arrivalPos="10.00" arrivalSpeed="10.27" duration="197.00" routeLength="1015.10" waitingTime="76.00" waitingCount="2" stopTime="0.00" timeLoss="127.12" rerouteNo="0" devices="tripinfo_left_51" vType="typeWE" speedFactor="1.17" vaporized=""/>
    <tripinfo id="left_55" depart="268.00" departLane="52o_0" departPos="5.10" departSpeed="0.00" departDelay="4.00" arrival="461.00" arrivalLane="51i_0" arrivalPos="10.00" arrivalSpeed="10.50" duration="193.00" routeLength="1015.10" waitingTime="72.00" waitingCount="2" stopTime="0.00" timeLoss="117.05" rerouteNo="0" devices="tripinfo_left_55" vType="typeWE" speedFactor="1.00" vaporized=""/>
    <tripinfo id="right_66" depart="327.00" departLane="51o_0" departPos="5.10" departSpeed="0.00" departDelay="0.00" arrival="461.00" arrivalLane="52i_0" arrivalPos="10.00" arrivalSpeed="10.33" duration="134.00" routeLength="1015.10" waitingTime="25.00" waitingCount="1" stopTime="0.00" timeLoss="53.04" rerouteNo="0" devices="tripinfo_right_66" vType="typeWE" speedFactor="0.91" vaporized=""/>
    <tripinfo id="left_56" depart="274.00" departLane="52o_0" departPos="5.10" departSpeed="0.00" departDelay="1.00" arrival="463.00" arrivalLane="51i_0" arrivalPos="10.00" arrivalSpeed="10.29" duration="189.00" routeLength="1015.10" waitingTime="67.00" waitingCount="2" stopTime="0.00" timeLoss="108.04" rerouteNo="0" devices="tripinfo_left_56" vType="typeWE" speedFactor="0.90" vaporized=""/>
    <tripinfo id="right_69" depart="352.00" departLane="51o_0" departPos="5.10" departSpeed="0.00" departDelay="0.00" arrival="463.00" arrivalLane="52i_0" arrivalPos="10.00" arrivalSpeed="10.76" duration="111.00" routeLength="1015.10" waitingTime="2.00" waitingCount="1" stopTime="0.00" timeLoss="35.37" rerouteNo="0" devices="tripinfo_right_69" vType="typeWE" speedFactor="1.02" vaporized=""/>
    <tripinfo id="left_57" depart="280.00" departLane="52o_0" departPos="5.10" departSpeed="0.00" departDelay="2.00" arrival="465.00" arrivalLane="51i_0" arrivalPos="10.00" arrivalSpeed="11.07" duration="185.00" routeLength="1015.10" waitingTime="63.00" waitingCount="2" stopTime="0.00" timeLoss="114.49" rerouteNo="0" devices="tripinfo_left_57" vType="typeWE" speedFactor="1.14" vaporized=""/>
    <tripinfo id="right_73" depart="377.00" departLane="51o_0" departPos="5.10" departSpeed="0.00" departDelay="0.00" arrival="466.00" arrivalLane="52i_0" arrivalPos="10.00" arrivalSpeed="11.93" duration="89.00" routeLength="1015.10" waitingTime="0.00" waitingCount="0" stopTime="0.00" timeLoss="14.98" rerouteNo="0" devices="tripinfo_right_73" vType="typeWE" speedFactor="1.06" vaporized=""/>
    <tripinfo id="left_58" depart="286.00" departLane="52o_0" departPos="5.10" departSpeed="0.00" departDelay="0.00" arrival="467.00" arrivalLane="51i_0" arrivalPos="10.00" arrivalSpeed="11.77" duration="181.00" routeLength="1015.10" waitingTime="56.00" waitingCount="2" stopTime="0.00" timeLoss="105.65" rerouteNo="0" devices="tripinfo_left_58" vType="typeWE" speedFactor="1.02" vaporized=""/>
    <tripinfo id="left_59" depart="301.00" departLane="52o_0" departPos="5.10" departSpeed="0.00" departDelay="0.00" arrival="469.00" arrivalLane="51i_0" arrivalPos="10.00" arrivalSpeed="11.39" duration="168.00" routeLength="1015.10" waitingTime="45.00" waitingCount="2" stopTime="0.00" timeLoss="89.90" rerouteNo="0" devices="tripinfo_left_59" vType="typeWE" speedFactor="0.97" vaporized=""/>
    <tripinfo id="left_61" depart="314.00" departLane="52o_0" departPos="5.10" departSpeed="0.00" departDelay="0.00" arrival="470.00" arrivalLane="51i_0" arrivalPos="10.00" arrivalSpeed="11.39" duration="156.00" routeLength="1015.10" waitingTime="37.00" waitingCount="1" stopTime="0.00" timeLoss="84.97" rerouteNo="0" devices="tripinfo_left_61" vType="typeWE" speedFactor="1.12" vaporized=""/>
    <tripinfo id="left_64" depart="319.00" departLane="52o_0" departPos="5.10" departSpeed="0.00" departDelay="1.00" arrival="472.00" arrivalLane="51i_0" arrivalPos="10.00" arrivalSpeed="10.87" duration="153.00" routeLength="1015.10" waitingTime="38.00" waitingCount="1" stopTime="0.00" timeLoss="74.14" rerouteNo="0" devices="tripinfo_left_64" vType="typeWE" speedFactor="0.94" vaporized=""/>
    <tripinfo id="left_68" depart="347.00" departLane="52o_0" departPos="5.10" departSpeed="0.00" departDelay="0.00" arrival="474.00" arrivalLane="51i_0" arrivalPos="10.00" arrivalSpeed="11.31" duration="127.00" routeLength="1015.10" waitingTime="15.00" waitingCount="1" stopTime="0.00" timeLoss="52.65" rerouteNo="0" devices="tripinfo_left_68" vType="typeWE" speedFactor="1.04" vaporized=""/>
    <tripinfo id="left_70" depart="363.00" departLane="52o_0" departPos="5.10" departSpeed="0.00" departDelay="0.00" arrival="476.00" arrivalLane="51i_0" arrivalPos="10.00" arrivalSpeed="11.66" duration="113.00" routeLength="1015.10" waitingTime="0.00" waitingCount="0" stopTime="0.00" timeLoss="37.71" rerouteNo="0" devices="tripinfo_left_70" vType="typeWE" speedFactor="1.02" vaporized=""/>
    <tripinfo id="right_74" depart="384.00" departLane="51o_0" departPos="5.10" departSpeed="0.00" departDelay="0.00" arrival="477.00" arrivalLane="52i_0" arrivalPos="10.00" arrivalSpeed="10.84" duration="93.00" routeLength="1015.10" waitingTime="0.00" waitingCount="0" stopTime="0.00" timeLoss="14.74" rerouteNo="0" devices="tripinfo_right_74" vType="typeWE" speedFactor="0.96" vaporized=""/>