<?xml version="1.0" encoding="UTF-8"?>

<!-- generated on 2022-11-10 15:49:10 by Eclipse SUMO GUI Version 1.12.0
<configuration xmlns:xsi="http://www.w3.org/2001/XMLSchema-instance" xsi:noNamespaceSchemaLocation="http://sumo.dlr.de/xsd/sumoConfiguration.xsd">

    <input>
        <net-file value="C:\Users\Burak\Desktop\mosas-projesi\QL_Cift_serit_Kilis_7902_Mosas_Verisi\mosas_kilis_7902_static.net.xml"/>
        <route-files value="C:\Users\Burak\Desktop\mosas-projesi\QL_Cift_serit_Kilis_7902_Mosas_Verisi\episode_routes_06-24.rou.xml"/>
        <additional-files value="C:\Users\Burak\Desktop\mosas-projesi\QL_Cift_serit_Kilis_7902_Mosas_Verisi\mosas_kilis_7902.det.xml"/>
    </input>

    <output>
        <tripinfo-output value="C:\Users\Burak\Desktop\mosas-projesi\QL_Cift_serit_Kilis_7902_Mosas_Verisi\my_intersection.trips.xml"/>
    </output>

    <time>
        <begin value="0"/>
        <end value="65000"/>
    </time>

    <report>
        <verbose value="true"/>
        <log value="C:\Users\Burak\Desktop\mosas-projesi\QL_Cift_serit_Kilis_7902_Mosas_Verisi\my_out.xml"/>
        <no-step-log value="true"/>
    </report>

</configuration>
-->

<tripinfos xmlns:xsi="http://www.w3.org/2001/XMLSchema-instance" xsi:noNamespaceSchemaLocation="http://sumo.dlr.de/xsd/tripinfo_file.xsd">
    <tripinfo id="0" depart="89.00" departLane="4_0_0" departPos="5.10" departSpeed="14.72" departDelay="0.00" arrival="147.00" arrivalLane="2_1_0" arrivalPos="102.99" arrivalSpeed="14.58" duration="58.00" routeLength="212.80" waitingTime="36.00" waitingCount="1" stopTime="0.00" timeLoss="43.02" rerouteNo="0" devices="tripinfo_0" vType="DEFAULT_VEHTYPE" speedFactor="1.06" vaporized=""/>
    <tripinfo id="1" depart="133.00" departLane="4_0_0" departPos="5.10" departSpeed="13.03" departDelay="0.00" arrival="151.00" arrivalLane="1_1_0" arrivalPos="98.87" arrivalSpeed="12.88" duration="18.00" routeLength="197.16" waitingTime="0.00" waitingCount="0" stopTime="0.00" timeLoss="1.87" rerouteNo="0" devices="tripinfo_1" vType="DEFAULT_VEHTYPE" speedFactor="0.94" vaporized=""/>
    <tripinfo id="2" depart="396.00" departLane="2_0_0" departPos="5.10" departSpeed="14.03" departDelay="0.00" arrival="414.00" arrivalLane="4_1_0" arrivalPos="93.26" arrivalSpeed="13.73" duration="18.00" routeLength="212.24" waitingTime="0.00" waitingCount="0" stopTime="0.00" timeLoss="2.87" rerouteNo="0" devices="tripinfo_2" vType="DEFAULT_VEHTYPE" speedFactor="1.01" vaporized=""/>
    <tripinfo id="3" depart="437.00" departLane="3_0_0" departPos="5.10" departSpeed="15.04" departDelay="0.00" arrival="461.00" arrivalLane="1_1_0" arrivalPos="98.87" arrivalSpeed="14.05" duration="24.00" routeLength="207.92" waitingTime="3.00" waitingCount="1" stopTime="0.00" timeLoss="9.66" rerouteNo="0" devices="tripinfo_3" vType="DEFAULT_VEHTYPE" speedFactor="1.08" vaporized=""/>
    <tripinfo id="4" depart="447.00" departLane="3_0_1" departPos="5.10" departSpeed="14.31" departDelay="0.00" arrival="463.00" arrivalLane="1_1_1" arrivalPos="98.87" arrivalSpeed="13.58" duration="16.00" routeLength="207.92" waitingTime="0.00" waitingCount="0" stopTime="0.00" timeLoss="0.77" rerouteNo="0" devices="tripinfo_4" vType="DEFAULT_VEHTYPE" speedFactor="1.03" vaporized=""/>
    <tripinfo id="5" depart="470.00" departLane="3_0_0" departPos="5.10" departSpeed="11.54" departDelay="0.00" arrival="490.00" arrivalLane="1_1_0" arrivalPos="98.87" arrivalSpeed="10.41" duration="20.00" routeLength="207.92" waitingTime="0.00" waitingCount="0" stopTime="0.00" timeLoss="1.21" rerouteNo="0" devices="tripinfo_5" vType="DEFAULT_VEHTYPE" speedFactor="0.83" vaporized=""/>
    <tripinfo id="6" depart="479.00" departLane="3_0_0" departPos="5.10" departSpeed="14.53" departDelay="0.00" arrival="494.00" arrivalLane="1_1_0" arrivalPos="98.87" arrivalSpeed="14.29" duration="15.00" routeLength="207.92" waitingTime="0.00" waitingCount="0" stopTime="0.00" timeLoss="0.52" rerouteNo="0" devices="tripinfo_6" vType="DEFAULT_VEHTYPE" speedFactor="1.05" vaporized=""/>
    <tripinfo id="7" depart="493.00" departLane="1_0_0" departPos="5.10" departSpeed="12.31" departDelay="0.00" arrival="552.00" arrivalLane="3_1_0" arrivalPos="92.93" arrivalSpeed="11.03" duration="59.00" routeLength="207.80" waitingTime="36.00" waitingCount="1" stopTime="0.00" timeLoss="41.71" rerouteNo="0" devices="tripinfo_7" vType="DEFAULT_VEHTYPE" speedFactor="0.89" vaporized=""/>
    <tripinfo id="8" depart="536.00" departLane="1_0_1" departPos="5.10" departSpeed="13.03" departDelay="0.00" arrival="553.00" arrivalLane="3_1_1" arrivalPos="92.93" arrivalSpeed="12.46" duration="17.00" routeLength="207.80" waitingTime="0.00" waitingCount="0" stopTime="0.00" timeLoss="0.86" rerouteNo="0" devices="tripinfo_8" vType="DEFAULT_VEHTYPE" speedFactor="0.94" vaporized=""/>
    <tripinfo id="9" depart="605.00" departLane="2_0_0" departPos="5.10" departSpeed="11.90" departDelay="0.00" arrival="624.00" arrivalLane="4_1_0" arrivalPos="93.26" arrivalSpeed="11.10" duration="19.00" routeLength="212.24" waitingTime="0.00" waitingCount="0" stopTime="0.00" timeLoss="0.83" rerouteNo="0" devices="tripinfo_9" vType="DEFAULT_VEHTYPE" speedFactor="0.86" vaporized=""/>
    <tripinfo id="10" depart="607.00" departLane="1_0_0" departPos="5.10" departSpeed="15.15" departDelay="0.00" arrival="641.00" arrivalLane="3_1_0" arrivalPos="92.93" arrivalSpeed="14.01" duration="34.00" routeLength="207.80" waitingTime="14.00" waitingCount="1" stopTime="0.00" timeLoss="19.54" rerouteNo="0" devices="tripinfo_10" vType="DEFAULT_VEHTYPE" speedFactor="1.09" vaporized=""/>
    <tripinfo id="11" depart="639.00" departLane="1_0_0" departPos="5.10" departSpeed="14.26" departDelay="0.00" arrival="655.00" arrivalLane="3_1_0" arrivalPos="92.93" arrivalSpeed="13.69" duration="16.00" routeLength="207.80" waitingTime="0.00" waitingCount="0" stopTime="0.00" timeLoss="0.88" rerouteNo="0" devices="tripinfo_11" vType="DEFAULT_VEHTYPE" speedFactor="1.03" vaporized=""/>
    <tripinfo id="12" depart="653.00" departLane="1_0_0" departPos="5.10" departSpeed="14.54" departDelay="0.00" arrival="669.00" arrivalLane="3_1_0" arrivalPos="92.93" arrivalSpeed="13.44" duration="16.00" routeLength="207.80" waitingTime="0.00" waitingCount="0" stopTime="0.00" timeLoss="0.83" rerouteNo="0" devices="tripinfo_12" vType="DEFAULT_VEHTYPE" speedFactor="1.05" vaporized=""/>
    <tripinfo id="13" depart="765.00" departLane="1_0_0" departPos="5.10" departSpeed="15.60" departDelay="0.00" arrival="821.00" arrivalLane="3_1_0" arrivalPos="92.93" arrivalSpeed="14.88" duration="56.00" routeLength="207.80" waitingTime="36.00" waitingCount="1" stopTime="0.00" timeLoss="41.85" rerouteNo="0" devices="tripinfo_13" vType="DEFAULT_VEHTYPE" speedFactor="1.12" vaporized=""/>
    <tripinfo id="14" depart="830.00" departLane="1_0_1" departPos="5.10" departSpeed="13.77" departDelay="0.00" arrival="848.00" arrivalLane="4_1_1" arrivalPos="93.26" arrivalSpeed="13.29" duration="18.00" routeLength="206.90" waitingTime="0.00" waitingCount="0" stopTime="0.00" timeLoss="1.73" rerouteNo="0" devices="tripinfo_14" vType="DEFAULT_VEHTYPE" speedFactor="0.99" vaporized=""/>
    <tripinfo id="19" depart="889.00" departLane="4_0_0" departPos="5.10" departSpeed="16.09" departDelay="0.00" arrival="904.00" arrivalLane="1_1_0" arrivalPos="98.87" arrivalSpeed="15.50" duration="15.00" routeLength="197.16" waitingTime="0.00" waitingCount="0" stopTime="0.00" timeLoss="2.25" rerouteNo="0" devices="tripinfo_19" vType="DEFAULT_VEHTYPE" speedFactor="1.16" vaporized=""/>
    <tripinfo id="15" depart="852.00" departLane="3_0_0" departPos="5.10" departSpeed="12.87" departDelay="0.00" arrival="912.00" arrivalLane="1_1_0" arrivalPos="98.87" arrivalSpeed="12.78" duration="60.00" routeLength="207.92" waitingTime="38.00" waitingCount="1" stopTime="0.00" timeLoss="43.48" rerouteNo="0" devices="tripinfo_15" vType="DEFAULT_VEHTYPE" speedFactor="0.93" vaporized=""/>
    <tripinfo id="16" depart="861.00" departLane="3_0_1" departPos="5.10" departSpeed="12.20" departDelay="0.00" arrival="912.00" arrivalLane="1_1_1" arrivalPos="98.87" arrivalSpeed="11.30" duration="51.00" routeLength="207.92" waitingTime="28.00" waitingCount="1" stopTime="0.00" timeLoss="33.48" rerouteNo="0" devices="tripinfo_16" vType="DEFAULT_VEHTYPE" speedFactor="0.88" vaporized=""/>
    <tripinfo id="17" depart="870.00" departLane="3_0_0" departPos="5.10" departSpeed="13.08" departDelay="0.00" arrival="914.00" arrivalLane="1_1_0" arrivalPos="98.87" arrivalSpeed="13.06" duration="44.00" routeLength="207.92" waitingTime="21.00" waitingCount="1" stopTime="0.00" timeLoss="28.09" rerouteNo="0" devices="tripinfo_17" vType="DEFAULT_VEHTYPE" speedFactor="0.94" vaporized=""/>
    <tripinfo id="18" depart="884.00" departLane="3_0_1" departPos="5.10" departSpeed="13.00" departDelay="0.00" arrival="914.00" arrivalLane="1_1_1" arrivalPos="98.87" arrivalSpeed="12.13" duration="30.00" routeLength="207.92" waitingTime="8.00" waitingCount="1" stopTime="0.00" timeLoss="13.32" rerouteNo="0" devices="tripinfo_18" vType="DEFAULT_VEHTYPE" speedFactor="0.94" vaporized=""/>
    <tripinfo id="20" depart="1045.00" departLane="2_0_0" departPos="5.10" departSpeed="14.14" departDelay="0.00" arrival="1063.00" arrivalLane="3_1_0" arrivalPos="92.93" arrivalSpeed="13.95" duration="18.00" routeLength="200.05" waitingTime="0.00" waitingCount="0" stopTime="0.00" timeLoss="2.92" rerouteNo="0" devices="tripinfo_20" vType="DEFAULT_VEHTYPE" speedFactor="1.02" vaporized=""/>
    <tripinfo id="21" depart="1050.00" departLane="2_0_1" departPos="5.10" departSpeed="14.03" departDelay="0.00" arrival="1066.00" arrivalLane="4_1_1" arrivalPos="93.26" arrivalSpeed="13.18" duration="16.00" routeLength="212.24" waitingTime="0.00" waitingCount="0" stopTime="0.00" timeLoss="0.72" rerouteNo="0" devices="tripinfo_21" vType="DEFAULT_VEHTYPE" speedFactor="1.01" vaporized=""/>
    <tripinfo id="22" depart="1072.00" departLane="3_0_0" departPos="5.10" departSpeed="13.54" departDelay="0.00" arrival="1090.00" arrivalLane="1_1_0" arrivalPos="98.87" arrivalSpeed="13.53" duration="18.00" routeLength="207.92" waitingTime="0.00" waitingCount="0" stopTime="0.00" timeLoss="1.66" rerouteNo="0" devices="tripinfo_22" vType="DEFAULT_VEHTYPE" speedFactor="0.98" vaporized=""/>
    <tripinfo id="23" depart="1100.00" departLane="3_0_0" departPos="5.10" departSpeed="12.36" departDelay="0.00" arrival="1118.00" arrivalLane="1_1_0" arrivalPos="98.87" arrivalSpeed="12.04" duration="18.00" routeLength="207.92" waitingTime="0.00" waitingCount="0" stopTime="0.00" timeLoss="0.78" rerouteNo="0" devices="tripinfo_23" vType="DEFAULT_VEHTYPE" speedFactor="0.89" vaporized=""/>
    <tripinfo id="24" depart="1167.00" departLane="1_0_0" departPos="5.10" departSpeed="11.47" departDelay="0.00" arrival="1187.00" arrivalLane="3_1_0" arrivalPos="92.93" arrivalSpeed="10.69" duration="20.00" routeLength="207.80" waitingTime="0.00" waitingCount="0" stopTime="0.00" timeLoss="1.03" rerouteNo="0" devices="tripinfo_24" vType="DEFAULT_VEHTYPE" speedFactor="0.83" vaporized=""/>
    <tripinfo id="25" depart="1168.00" departLane="1_0_0" departPos="5.10" departSpeed="8.34" departDelay="0.00" arrival="1190.00" arrivalLane="2_1_0" arrivalPos="102.99" arrivalSpeed="10.99" duration="22.00" routeLength="205.97" waitingTime="0.00" waitingCount="0" stopTime="0.00" timeLoss="4.30" rerouteNo="0" devices="tripinfo_25" vType="DEFAULT_VEHTYPE" speedFactor="0.87" vaporized=""/>
    <tripinfo id="26" depart="1195.00" departLane="3_0_1" departPos="5.10" departSpeed="12.74" departDelay="0.00" arrival="1215.00" arrivalLane="2_1_1" arrivalPos="102.99" arrivalSpeed="11.98" duration="20.00" routeLength="210.56" waitingTime="0.00" waitingCount="0" stopTime="0.00" timeLoss="2.08" rerouteNo="0" devices="tripinfo_26" vType="DEFAULT_VEHTYPE" speedFactor="0.92" vaporized=""/>
    <tripinfo id="27" depart="1229.00" departLane="1_0_0" departPos="5.10" departSpeed="13.18" departDelay="0.00" arrival="1271.00" arrivalLane="2_1_0" arrivalPos="102.99" arrivalSpeed="12.06" duration="42.00" routeLength="205.97" waitingTime="19.00" waitingCount="1" stopTime="0.00" timeLoss="25.28" rerouteNo="0" devices="tripinfo_27" vType="DEFAULT_VEHTYPE" speedFactor="0.95" vaporized=""/>
    <tripinfo id="28" depart="1235.00" departLane="1_0_0" departPos="5.10" departSpeed="15.72" departDelay="0.00" arrival="1273.00" arrivalLane="2_1_0" arrivalPos="102.99" arrivalSpeed="15.36" duration="38.00" routeLength="205.97" waitingTime="17.00" waitingCount="1" stopTime="0.00" timeLoss="23.58" rerouteNo="0" devices="tripinfo_28" vType="DEFAULT_VEHTYPE" speedFactor="1.13" vaporized=""/>
    <tripinfo id="30" depart="1347.00" departLane="1_0_1" departPos="5.10" departSpeed="16.37" departDelay="0.00" arrival="1361.00" arrivalLane="3_1_1" arrivalPos="92.93" arrivalSpeed="15.61" duration="14.00" routeLength="207.80" waitingTime="0.00" waitingCount="0" stopTime="0.00" timeLoss="0.56" rerouteNo="0" devices="tripinfo_30" vType="DEFAULT_VEHTYPE" speedFactor="1.18" vaporized=""/>
    <tripinfo id="29" depart="1296.00" departLane="1_0_0" departPos="5.10" departSpeed="12.94" departDelay="0.00" arrival="1362.00" arrivalLane="3_1_0" arrivalPos="92.93" arrivalSpeed="11.65" duration="66.00" routeLength="207.80" waitingTime="42.00" waitingCount="1" stopTime="0.00" timeLoss="49.05" rerouteNo="0" devices="tripinfo_29" vType="DEFAULT_VEHTYPE" speedFactor="0.93" vaporized=""/>
    <tripinfo id="31" depart="1380.00" departLane="2_0_0" departPos="5.10" departSpeed="16.04" departDelay="0.00" arrival="1406.00" arrivalLane="4_1_0" arrivalPos="93.26" arrivalSpeed="16.03" duration="26.00" routeLength="212.24" waitingTime="5.00" waitingCount="1" stopTime="0.00" timeLoss="11.94" rerouteNo="0" devices="tripinfo_31" vType="DEFAULT_VEHTYPE" speedFactor="1.15" vaporized=""/>
    <tripinfo id="32" depart="1382.00" departLane="4_0_0" departPos="5.10" departSpeed="13.96" departDelay="0.00" arrival="1406.00" arrivalLane="1_1_0" arrivalPos="98.87" arrivalSpeed="13.36" duration="24.00" routeLength="197.16" waitingTime="3.00" waitingCount="1" stopTime="0.00" timeLoss="9.10" rerouteNo="0" devices="tripinfo_32" vType="DEFAULT_VEHTYPE" speedFactor="1.01" vaporized=""/>
    <tripinfo id="34" depart="1390.00" departLane="4_0_1" departPos="5.10" departSpeed="13.82" departDelay="0.00" arrival="1407.00" arrivalLane="2_1_1" arrivalPos="102.99" arrivalSpeed="13.11" duration="17.00" routeLength="212.80" waitingTime="0.00" waitingCount="0" stopTime="0.00" timeLoss="0.85" rerouteNo="0" devices="tripinfo_34" vType="DEFAULT_VEHTYPE" speedFactor="0.99" vaporized=""/>
    <tripinfo id="33" depart="1384.00" departLane="4_0_0" departPos="5.10" departSpeed="14.65" departDelay="0.00" arrival="1408.00" arrivalLane="1_1_0" arrivalPos="98.87" arrivalSpeed="15.41" duration="24.00" routeLength="197.16" waitingTime="1.00" waitingCount="1" stopTime="0.00" timeLoss="11.07" rerouteNo="0" devices="tripinfo_33" vType="DEFAULT_VEHTYPE" speedFactor="1.17" vaporized=""/>
    <tripinfo id="35" depart="1412.00" departLane="3_0_0" departPos="5.10" departSpeed="14.16" departDelay="0.00" arrival="1451.00" arrivalLane="1_1_0" arrivalPos="98.87" arrivalSpeed="14.01" duration="39.00" routeLength="207.92" waitingTime="18.00" waitingCount="1" stopTime="0.00" timeLoss="24.32" rerouteNo="0" devices="tripinfo_35" vType="DEFAULT_VEHTYPE" speedFactor="1.02" vaporized=""/>
    <tripinfo id="36" depart="1447.00" departLane="3_0_0" departPos="5.10" departSpeed="13.52" departDelay="0.00" arrival="1464.00" arrivalLane="1_1_0" arrivalPos="98.87" arrivalSpeed="12.78" duration="17.00" routeLength="207.92" waitingTime="0.00" waitingCount="0" stopTime="0.00" timeLoss="0.71" rerouteNo="0" devices="tripinfo_36" vType="DEFAULT_VEHTYPE" speedFactor="0.97" vaporized=""/>
    <tripinfo id="38" depart="1503.00" departLane="2_0_0" departPos="5.10" departSpeed="15.31" departDelay="0.00" arrival="1520.00" arrivalLane="3_1_0" arrivalPos="92.93" arrivalSpeed="14.31" duration="17.00" routeLength="200.05" waitingTime="0.00" waitingCount="0" stopTime="0.00" timeLoss="2.70" rerouteNo="0" devices="tripinfo_38" vType="DEFAULT_VEHTYPE" speedFactor="1.10" vaporized=""/>
    <tripinfo id="37" depart="1478.00" departLane="3_0_0" departPos="5.10" departSpeed="16.39" departDelay="0.00" arrival="1540.00" arrivalLane="1_1_0" arrivalPos="98.87" arrivalSpeed="15.58" duration="62.00" routeLength="207.92" waitingTime="43.00" waitingCount="1" stopTime="0.00" timeLoss="49.05" rerouteNo="0" devices="tripinfo_37" vType="DEFAULT_VEHTYPE" speedFactor="1.18" vaporized=""/>
    <tripinfo id="39" depart="1649.00" departLane="2_0_0" departPos="5.10" departSpeed="12.51" departDelay="0.00" arrival="1676.00" arrivalLane="3_1_0" arrivalPos="92.93" arrivalSpeed="12.17" duration="27.00" routeLength="200.05" waitingTime="4.00" waitingCount="1" stopTime="0.00" timeLoss="9.67" rerouteNo="0" devices="tripinfo_39" vType="DEFAULT_VEHTYPE" speedFactor="0.90" vaporized=""/>
    <tripinfo id="40" depart="1727.00" departLane="1_0_0" departPos="5.10" departSpeed="14.31" departDelay="0.00" arrival="1745.00" arrivalLane="2_1_0" arrivalPos="102.99" arrivalSpeed="14.14" duration="18.00" routeLength="205.97" waitingTime="0.00" waitingCount="0" stopTime="0.00" timeLoss="2.27" rerouteNo="0" devices="tripinfo_40" vType="DEFAULT_VEHTYPE" speedFactor="1.03" vaporized=""/>
    <tripinfo id="41" depart="1743.00" departLane="1_0_0" departPos="5.10" departSpeed="13.29" departDelay="0.00" arrival="1760.00" arrivalLane="3_1_0" arrivalPos="92.93" arrivalSpeed="13.28" duration="17.00" routeLength="207.80" waitingTime="0.00" waitingCount="0" stopTime="0.00" timeLoss="0.98" rerouteNo="0" devices="tripinfo_41" vType="DEFAULT_VEHTYPE" speedFactor="0.96" vaporized=""/>
    <tripinfo id="42" depart="1756.00" departLane="2_0_1" departPos="5.10" departSpeed="15.17" departDelay="0.00" arrival="1774.00" arrivalLane="1_1_1" arrivalPos="98.87" arrivalSpeed="14.13" duration="18.00" routeLength="216.23" waitingTime="0.00" waitingCount="0" stopTime="0.00" timeLoss="2.42" rerouteNo="0" devices="tripinfo_42" vType="DEFAULT_VEHTYPE" speedFactor="1.09" vaporized=""/>
    <tripinfo id="43" depart="1769.00" departLane="3_0_1" departPos="5.10" departSpeed="14.41" departDelay="0.00" arrival="1811.00" arrivalLane="2_1_1" arrivalPos="102.99" arrivalSpeed="13.32" duration="42.00" routeLength="210.56" waitingTime="21.00" waitingCount="1" stopTime="0.00" timeLoss="26.61" rerouteNo="0" devices="tripinfo_43" vType="DEFAULT_VEHTYPE" speedFactor="1.04" vaporized=""/>
    <tripinfo id="44" depart="1823.00" departLane="1_0_0" departPos="5.10" departSpeed="14.49" departDelay="0.00" arrival="1840.00" arrivalLane="2_1_0" arrivalPos="102.99" arrivalSpeed="14.38" duration="17.00" routeLength="205.97" waitingTime="0.00" waitingCount="0" stopTime="0.00" timeLoss="2.18" rerouteNo="0" devices="tripinfo_44" vType="DEFAULT_VEHTYPE" speedFactor="1.04" vaporized=""/>
    <tripinfo id="45" depart="1828.00" departLane="3_0_0" departPos="5.10" departSpeed="15.11" departDelay="0.00" arrival="1843.00" arrivalLane="1_1_0" arrivalPos="98.87" arrivalSpeed="13.89" duration="15.00" routeLength="207.92" waitingTime="0.00" waitingCount="0" stopTime="0.00" timeLoss="0.64" rerouteNo="0" devices="tripinfo_45" vType="DEFAULT_VEHTYPE" speedFactor="1.09" vaporized=""/>
    <tripinfo id="46" depart="1838.00" departLane="3_0_0" departPos="5.10" departSpeed="13.85" departDelay="0.00" arrival="1901.00" arrivalLane="1_1_0" arrivalPos="98.87" arrivalSpeed="13.33" duration="63.00" routeLength="207.92" waitingTime="42.00" waitingCount="1" stopTime="0.00" timeLoss="47.84" rerouteNo="0" devices="tripinfo_46" vType="DEFAULT_VEHTYPE" speedFactor="1.00" vaporized=""/>
    <tripinfo id="47" depart="1884.00" departLane="3_0_1" departPos="5.10" departSpeed="12.51" departDelay="0.00" arrival="1902.00" arrivalLane="1_1_1" arrivalPos="98.87" arrivalSpeed="12.12" duration="18.00" routeLength="207.92" waitingTime="0.00" waitingCount="0" stopTime="0.00" timeLoss="0.76" rerouteNo="0" devices="tripinfo_47" vType="DEFAULT_VEHTYPE" speedFactor="0.90" vaporized=""/>
    <tripinfo id="48" depart="1894.00" departLane="3_0_0" departPos="5.10" departSpeed="12.18" departDelay="0.00" arrival="1913.00" arrivalLane="1_1_0" arrivalPos="98.87" arrivalSpeed="11.05" duration="19.00" routeLength="207.92" waitingTime="0.00" waitingCount="0" stopTime="0.00" timeLoss="1.08" rerouteNo="0" devices="tripinfo_48" vType="DEFAULT_VEHTYPE" speedFactor="0.88" vaporized=""/>
    <tripinfo id="49" depart="1914.00" departLane="2_0_0" departPos="5.10" departSpeed="11.81" departDelay="0.00" arrival="1946.00" arrivalLane="3_1_0" arrivalPos="92.93" arrivalSpeed="11.24" duration="32.00" routeLength="200.05" waitingTime="9.00" waitingCount="1" stopTime="0.00" timeLoss="14.27" rerouteNo="0" devices="tripinfo_49" vType="DEFAULT_VEHTYPE" speedFactor="0.85" vaporized=""/>
    <tripinfo id="50" depart="2041.00" departLane="2_0_0" departPos="5.10" departSpeed="11.87" departDelay="0.00" arrival="2062.00" arrivalLane="3_1_0" arrivalPos="92.93" arrivalSpeed="10.97" duration="21.00" routeLength="200.05" waitingTime="0.00" waitingCount="0" stopTime="0.00" timeLoss="2.84" rerouteNo="0" devices="tripinfo_50" vType="DEFAULT_VEHTYPE" speedFactor="0.85" vaporized=""/>
    <tripinfo id="51" depart="2060.00" departLane="1_0_1" departPos="5.10" departSpeed="16.24" departDelay="0.00" arrival="2080.00" arrivalLane="4_1_1" arrivalPos="93.26" arrivalSpeed="16.07" duration="20.00" routeLength="206.90" waitingTime="0.00" waitingCount="0" stopTime="0.00" timeLoss="6.28" rerouteNo="0" devices="tripinfo_51" vType="DEFAULT_VEHTYPE" speedFactor="1.17" vaporized=""/>
    <tripinfo id="52" depart="2077.00" departLane="1_0_0" departPos="5.10" departSpeed="14.12" departDelay="0.00" arrival="2093.00" arrivalLane="3_1_0" arrivalPos="92.93" arrivalSpeed="13.47" duration="16.00" routeLength="207.80" waitingTime="0.00" waitingCount="0" stopTime="0.00" timeLoss="0.65" rerouteNo="0" devices="tripinfo_52" vType="DEFAULT_VEHTYPE" speedFactor="1.02" vaporized=""/>
    <tripinfo id="53" depart="2104.00" departLane="3_0_1" departPos="5.10" departSpeed="15.22" departDelay="0.00" arrival="2121.00" arrivalLane="2_1_1" arrivalPos="102.99" arrivalSpeed="14.65" duration="17.00" routeLength="210.56" waitingTime="0.00" waitingCount="0" stopTime="0.00" timeLoss="2.19" rerouteNo="0" devices="tripinfo_53" vType="DEFAULT_VEHTYPE" speedFactor="1.10" vaporized=""/>
    <tripinfo id="54" depart="2176.00" departLane="3_0_0" departPos="5.10" departSpeed="13.93" departDelay="0.00" arrival="2192.00" arrivalLane="1_1_0" arrivalPos="98.87" arrivalSpeed="13.27" duration="16.00" routeLength="207.92" waitingTime="0.00" waitingCount="0" stopTime="0.00" timeLoss="0.78" rerouteNo="0" devices="tripinfo_54" vType="DEFAULT_VEHTYPE" speedFactor="1.00" vaporized=""/>
    <tripinfo id="56" depart="2264.00" departLane="1_0_1" departPos="5.10" departSpeed="12.49" departDelay="0.00" arrival="2284.00" arrivalLane="4_1_1" arrivalPos="93.26" arrivalSpeed="11.31" duration="20.00" routeLength="206.90" waitingTime="0.00" waitingCount="0" stopTime="0.00" timeLoss="2.31" rerouteNo="0" devices="tripinfo_56" vType="DEFAULT_VEHTYPE" speedFactor="0.90" vaporized=""/>
    <tripinfo id="57" depart="2282.00" departLane="1_0_0" departPos="5.10" departSpeed="15.87" departDelay="0.00" arrival="2296.00" arrivalLane="3_1_0" arrivalPos="92.93" arrivalSpeed="14.66" duration="14.00" routeLength="207.80" waitingTime="0.00" waitingCount="0" stopTime="0.00" timeLoss="0.49" rerouteNo="0" devices="tripinfo_57" vType="DEFAULT_VEHTYPE" speedFactor="1.14" vaporized=""/>
    <tripinfo id="55" depart="2240.00" departLane="2_0_0" departPos="5.10" departSpeed="13.83" departDelay="0.00" arrival="2306.00" arrivalLane="4_1_0" arrivalPos="93.26" arrivalSpeed="12.55" duration="66.00" routeLength="212.24" waitingTime="43.00" waitingCount="1" stopTime="0.00" timeLoss="50.56" rerouteNo="0" devices="tripinfo_55" vType="DEFAULT_VEHTYPE" speedFactor="1.00" vaporized=""/>
    <tripinfo id="58" depart="2288.00" departLane="2_0_0" departPos="5.10" departSpeed="14.22" departDelay="0.00" arrival="2308.00" arrivalLane="3_1_0" arrivalPos="92.93" arrivalSpeed="13.24" duration="20.00" routeLength="200.05" waitingTime="0.00" waitingCount="0" stopTime="0.00" timeLoss="4.51" rerouteNo="0" devices="tripinfo_58" vType="DEFAULT_VEHTYPE" speedFactor="1.02" vaporized=""/>
    <tripinfo id="59" depart="2321.00" departLane="2_0_0" departPos="5.10" departSpeed="13.47" departDelay="0.00" arrival="2339.00" arrivalLane="3_1_0" arrivalPos="92.93" arrivalSpeed="13.09" duration="18.00" routeLength="200.05" waitingTime="0.00" waitingCount="0" stopTime="0.00" timeLoss="2.49" rerouteNo="0" devices="tripinfo_59" vType="DEFAULT_VEHTYPE" speedFactor="0.97" vaporized=""/>
    <tripinfo id="60" depart="2323.00" departLane="2_0_0" departPos="5.10" departSpeed="14.52" departDelay="0.00" arrival="2341.00" arrivalLane="3_1_0" arrivalPos="92.93" arrivalSpeed="13.77" duration="18.00" routeLength="200.05" waitingTime="0.00" waitingCount="0" stopTime="0.00" timeLoss="3.59" rerouteNo="0" devices="tripinfo_60" vType="DEFAULT_VEHTYPE" speedFactor="1.08" vaporized=""/>
    <tripinfo id="61" depart="2373.00" departLane="2_0_0" departPos="5.10" departSpeed="15.55" departDelay="0.00" arrival="2394.00" arrivalLane="3_1_0" arrivalPos="92.93" arrivalSpeed="14.90" duration="21.00" routeLength="200.05" waitingTime="1.00" waitingCount="1" stopTime="0.00" timeLoss="7.50" rerouteNo="0" devices="tripinfo_61" vType="DEFAULT_VEHTYPE" speedFactor="1.12" vaporized=""/>
    <tripinfo id="62" depart="2376.00" departLane="4_0_0" departPos="5.10" departSpeed="14.11" departDelay="0.00" arrival="2395.00" arrivalLane="1_1_0" arrivalPos="98.87" arrivalSpeed="13.10" duration="19.00" routeLength="197.16" waitingTime="0.00" waitingCount="0" stopTime="0.00" timeLoss="3.88" rerouteNo="0" devices="tripinfo_62" vType="DEFAULT_VEHTYPE" speedFactor="1.02" vaporized=""/>
    <tripinfo id="64" depart="2431.00" departLane="3_0_0" departPos="5.10" departSpeed="13.02" departDelay="0.00" arrival="2448.00" arrivalLane="1_1_0" arrivalPos="98.87" arrivalSpeed="11.83" duration="17.00" routeLength="207.92" waitingTime="0.00" waitingCount="0" stopTime="0.00" timeLoss="1.03" rerouteNo="0" devices="tripinfo_64" vType="DEFAULT_VEHTYPE" speedFactor="0.94" vaporized=""/>
    <tripinfo id="63" depart="2429.00" departLane="4_0_0" departPos="5.10" departSpeed="13.71" departDelay="0.00" arrival="2486.00" arrivalLane="1_1_0" arrivalPos="98.87" arrivalSpeed="13.10" duration="57.00" routeLength="197.16" waitingTime="36.00" waitingCount="1" stopTime="0.00" timeLoss="41.55" rerouteNo="0" devices="tripinfo_63" vType="DEFAULT_VEHTYPE" speedFactor="0.99" vaporized=""/>
    <tripinfo id="65" depart="2472.00" departLane="2_0_0" departPos="5.10" departSpeed="12.26" departDelay="0.00" arrival="2491.00" arrivalLane="4_1_0" arrivalPos="93.26" arrivalSpeed="10.96" duration="19.00" routeLength="212.24" waitingTime="0.00" waitingCount="0" stopTime="0.00" timeLoss="1.26" rerouteNo="0" devices="tripinfo_65" vType="DEFAULT_VEHTYPE" speedFactor="0.88" vaporized=""/>
    <tripinfo id="66" depart="2556.00" departLane="2_0_0" departPos="5.10" departSpeed="12.60" departDelay="0.00" arrival="2575.00" arrivalLane="4_1_0" arrivalPos="93.26" arrivalSpeed="11.58" duration="19.00" routeLength="212.24" waitingTime="0.00" waitingCount="0" stopTime="0.00" timeLoss="1.40" rerouteNo="0" devices="tripinfo_66" vType="DEFAULT_VEHTYPE" speedFactor="0.91" vaporized=""/>
    <tripinfo id="68" depart="2614.00" departLane="1_0_0" departPos="5.10" departSpeed="14.44" departDelay="0.00" arrival="2629.00" arrivalLane="3_1_0" arrivalPos="92.93" arrivalSpeed="14.16" duration="15.00" routeLength="207.80" waitingTime="0.00" waitingCount="0" stopTime="0.00" timeLoss="0.45" rerouteNo="0" devices="tripinfo_68" vType="DEFAULT_VEHTYPE" speedFactor="1.04" vaporized=""/>
    <tripinfo id="67" depart="2603.00" departLane="2_0_0" departPos="5.10" departSpeed="12.70" departDelay="0.00" arrival="2666.00" arrivalLane="3_1_0" arrivalPos="92.93" arrivalSpeed="11.47" duration="63.00" routeLength="200.05" waitingTime="41.00" waitingCount="1" stopTime="0.00" timeLoss="45.83" rerouteNo="0" devices="tripinfo_67" vType="DEFAULT_VEHTYPE" speedFactor="0.91" vaporized=""/>
    <tripinfo id="69" depart="2730.00" departLane="1_0_0" departPos="5.10" departSpeed="14.20" departDelay="0.00" arrival="2746.00" arrivalLane="3_1_0" arrivalPos="92.93" arrivalSpeed="13.41" duration="16.00" routeLength="207.80" waitingTime="0.00" waitingCount="0" stopTime="0.00" timeLoss="0.62" rerouteNo="0" devices="tripinfo_69" vType="DEFAULT_VEHTYPE" speedFactor="1.02" vaporized=""/>
    <tripinfo id="70" depart="2731.00" departLane="1_0_1" departPos="5.10" departSpeed="14.21" departDelay="0.00" arrival="2747.00" arrivalLane="3_1_1" arrivalPos="92.93" arrivalSpeed="13.79" duration="16.00" routeLength="207.80" waitingTime="0.00" waitingCount="0" stopTime="0.00" timeLoss="0.74" rerouteNo="0" devices="tripinfo_70" vType="DEFAULT_VEHTYPE" speedFactor="1.02" vaporized=""/>
    <tripinfo id="74" depart="2765.00" departLane="2_0_0" departPos="5.10" departSpeed="13.27" departDelay="0.00" arrival="2773.00" arrivalLane="2_0_0" arrivalPos="102.99" arrivalSpeed="12.08" duration="8.00" routeLength="97.89" waitingTime="0.00" waitingCount="0" stopTime="0.00" timeLoss="0.43" rerouteNo="0" devices="tripinfo_74" vType="DEFAULT_VEHTYPE" speedFactor="0.96" vaporized=""/>
    <tripinfo id="75" depart="2772.00" departLane="2_0_0" departPos="5.10" departSpeed="13.68" departDelay="0.00" arrival="2790.00" arrivalLane="3_1_0" arrivalPos="92.93" arrivalSpeed="13.60" duration="18.00" routeLength="200.05" waitingTime="0.00" waitingCount="0" stopTime="0.00" timeLoss="2.91" rerouteNo="0" devices="tripinfo_75" vType="DEFAULT_VEHTYPE" speedFactor="0.98" vaporized=""/>