<?xml version="1.0" encoding="UTF-8"?>

<!-- generated on 2022-10-04 10:40:05 by Eclipse SUMO GUI Version 1.14.1
<configuration xmlns:xsi="http://www.w3.org/2001/XMLSchema-instance" xsi:noNamespaceSchemaLocation="http://sumo.dlr.de/xsd/sumoConfiguration.xsd">

    <input>
        <net-file value="C:\Users\Burak\Desktop\mosas-projesi\QL_Cift_serit_Kilis_7902_Mosas_Verisi\mosas_kilis_7902_actuated.net.xml"/>
        <route-files value="C:\Users\Burak\Desktop\mosas-projesi\QL_Cift_serit_Kilis_7902_Mosas_Verisi\episode_routes_08-24.rou.xml"/>
        <additional-files value="C:\Users\Burak\Desktop\mosas-projesi\QL_Cift_serit_Kilis_7902_Mosas_Verisi\mosas_kilis_7902.det.xml"/>
    </input>

    <output>
        <tripinfo-output value="C:\Users\Burak\Desktop\mosas-projesi\QL_Cift_serit_Kilis_7902_Mosas_Verisi\my_intersection.trips.xml"/>
    </output>

    <time>
        <begin value="0"/>
        <end value="65000"/>
    </time>

    <report>
        <verbose value="true"/>
        <log value="C:\Users\Burak\Desktop\mosas-projesi\QL_Cift_serit_Kilis_7902_Mosas_Verisi\my_out.xml"/>
        <no-step-log value="true"/>
    </report>

</configuration>
-->

<detector xmlns:xsi="http://www.w3.org/2001/XMLSchema-instance" xsi:noNamespaceSchemaLocation="http://sumo.dlr.de/xsd/det_e1_file.xsd">
    <interval begin="0.00" end="300.00" id="J0_1_D0.0" nVehContrib="12" flow="144.00" occupancy="1.59" speed="12.82" harmonicMeanSpeed="12.55" length="5.00" nVehEntered="12"/>
    <interval begin="0.00" end="300.00" id="J0_1_D0.1" nVehContrib="6" flow="72.00" occupancy="0.80" speed="12.81" harmonicMeanSpeed="12.49" length="5.00" nVehEntered="6"/>
    <interval begin="0.00" end="300.00" id="J0_1_D1.0" nVehContrib="14" flow="168.00" occupancy="1.79" speed="13.08" harmonicMeanSpeed="13.01" length="5.00" nVehEntered="14"/>
    <interval begin="0.00" end="300.00" id="J0_1_D1.1" nVehContrib="5" flow="60.00" occupancy="0.68" speed="12.38" harmonicMeanSpeed="12.17" length="5.00" nVehEntered="5"/>
    <interval begin="0.00" end="300.00" id="J0_1_D2.0" nVehContrib="6" flow="72.00" occupancy="0.80" speed="12.54" harmonicMeanSpeed="12.44" length="5.00" nVehEntered="6"/>
    <interval begin="0.00" end="300.00" id="J0_1_D2.1" nVehContrib="2" flow="24.00" occupancy="0.25" speed="13.36" harmonicMeanSpeed="13.35" length="5.00" nVehEntered="2"/>
    <interval begin="0.00" end="300.00" id="J0_1_D3.0" nVehContrib="6" flow="72.00" occupancy="0.78" speed="12.85" harmonicMeanSpeed="12.77" length="5.00" nVehEntered="6"/>
    <interval begin="0.00" end="300.00" id="J0_1_D3.1" nVehContrib="8" flow="96.00" occupancy="1.06" speed="12.75" harmonicMeanSpeed="12.58" length="5.00" nVehEntered="8"/>
    <interval begin="300.00" end="600.00" id="J0_1_D0.0" nVehContrib="15" flow="180.00" occupancy="1.91" speed="13.28" harmonicMeanSpeed="13.10" length="5.00" nVehEntered="15"/>
    <interval begin="300.00" end="600.00" id="J0_1_D0.1" nVehContrib="14" flow="168.00" occupancy="1.98" speed="12.10" harmonicMeanSpeed="11.76" length="5.00" nVehEntered="14"/>
    <interval begin="300.00" end="600.00" id="J0_1_D1.0" nVehContrib="8" flow="96.00" occupancy="0.98" speed="13.64" harmonicMeanSpeed="13.56" length="5.00" nVehEntered="8"/>
    <interval begin="300.00" end="600.00" id="J0_1_D1.1" nVehContrib="6" flow="72.00" occupancy="0.81" speed="12.39" harmonicMeanSpeed="12.39" length="5.00" nVehEntered="6"/>
    <interval begin="300.00" end="600.00" id="J0_1_D2.0" nVehContrib="4" flow="48.00" occupancy="0.53" speed="12.67" harmonicMeanSpeed="12.66" length="5.00" nVehEntered="4"/>
    <interval begin="300.00" end="600.00" id="J0_1_D2.1" nVehContrib="2" flow="24.00" occupancy="0.26" speed="13.05" harmonicMeanSpeed="13.04" length="5.00" nVehEntered="2"/>
    <interval begin="300.00" end="600.00" id="J0_1_D3.0" nVehContrib="4" flow="48.00" occupancy="0.48" speed="13.79" harmonicMeanSpeed="13.77" length="5.00" nVehEntered="4"/>
    <interval begin="300.00" end="600.00" id="J0_1_D3.1" nVehContrib="14" flow="168.00" occupancy="4.33" speed="10.67" harmonicMeanSpeed="5.39" length="5.00" nVehEntered="14"/>
    <interval begin="600.00" end="733.00" id="J0_1_D0.0" nVehContrib="5" flow="135.34" occupancy="1.67" speed="11.31" harmonicMeanSpeed="11.22" length="5.00" nVehEntered="5"/>
    <interval begin="600.00" end="733.00" id="J0_1_D0.1" nVehContrib="3" flow="81.20" occupancy="0.79" speed="14.44" harmonicMeanSpeed="14.32" length="5.00" nVehEntered="3"/>
    <interval begin="600.00" end="733.00" id="J0_1_D1.0" nVehContrib="0" flow="0.00" occupancy="0.00" speed="-1.00" harmonicMeanSpeed="-1.00" length="-1.00" nVehEntered="0"/>
    <interval begin="600.00" end="733.00" id="J0_1_D1.1" nVehContrib="0" flow="0.00" occupancy="0.00" speed="-1.00" harmonicMeanSpeed="-1.00" length="-1.00" nVehEntered="0"/>
    <interval begin="600.00" end="733.00" id="J0_1_D2.0" nVehContrib="3" flow="81.20" occupancy="0.80" speed="14.14" harmonicMeanSpeed="14.10" length="5.00" nVehEntered="3"/>
    <interval begin="600.00" end="733.00" id="J0_1_D2.1" nVehContrib="2" flow="54.14" occupancy="0.54" speed="13.93" harmonicMeanSpeed="13.89" length="5.00" nVehEntered="2"/>
    <interval begin="600.00" end="733.00" id="J0_1_D3.0" nVehContrib="2" flow="54.14" occupancy="0.53" speed="14.17" harmonicMeanSpeed="14.12" length="5.00" nVehEntered="2"/>
    <interval begin="600.00" end="733.00" id="J0_1_D3.1" nVehContrib="7" flow="189.47" occupancy="2.02" speed="13.23" harmonicMeanSpeed="13.01" length="5.00" nVehEntered="7"/>
</detector>
