<?xml version="1.0" encoding="UTF-8"?>

<!-- generated on 2022-10-27 13:57:18 by Eclipse SUMO GUI Version 1.12.0
<configuration xmlns:xsi="http://www.w3.org/2001/XMLSchema-instance" xsi:noNamespaceSchemaLocation="http://sumo.dlr.de/xsd/sumoConfiguration.xsd">

    <input>
        <net-file value="C:\Users\Burak\Desktop\mosas-projesi\QL_Tek_serit_Kilis_7902_Mosas_Verisi\mosas_kilis_7902_delay_based.net.xml"/>
        <route-files value="C:\Users\Burak\Desktop\mosas-projesi\QL_Tek_serit_Kilis_7902_Mosas_Verisi\episode_routes.rou.xml"/>
        <additional-files value="C:\Users\Burak\Desktop\mosas-projesi\QL_Tek_serit_Kilis_7902_Mosas_Verisi\mosas_kilis_7902.det.xml"/>
    </input>

    <output>
        <tripinfo-output value="C:\Users\Burak\Desktop\mosas-projesi\QL_Tek_serit_Kilis_7902_Mosas_Verisi\my_intersection.trips.xml"/>
    </output>

    <time>
        <begin value="0"/>
        <end value="60000"/>
    </time>

    <report>
        <verbose value="true"/>
        <log value="C:\Users\Burak\Desktop\mosas-projesi\QL_Tek_serit_Kilis_7902_Mosas_Verisi\my_out.xml"/>
        <no-step-log value="true"/>
    </report>

</configuration>
-->

<detector xmlns:xsi="http://www.w3.org/2001/XMLSchema-instance" xsi:noNamespaceSchemaLocation="http://sumo.dlr.de/xsd/det_e1_file.xsd">
    <interval begin="0.00" end="200.00" id="3_0" nVehContrib="14" flow="252.00" occupancy="5.36" speed="7.31" harmonicMeanSpeed="6.53" length="5.00" nVehEntered="14"/>
    <interval begin="200.00" end="400.00" id="3_0" nVehContrib="18" flow="324.00" occupancy="9.92" speed="6.55" harmonicMeanSpeed="4.54" length="5.00" nVehEntered="18"/>
    <interval begin="400.00" end="600.00" id="3_0" nVehContrib="0" flow="0.00" occupancy="0.00" speed="-1.00" harmonicMeanSpeed="-1.00" length="-1.00" nVehEntered="0"/>
    <interval begin="600.00" end="800.00" id="3_0" nVehContrib="10" flow="180.00" occupancy="4.22" speed="7.40" harmonicMeanSpeed="5.93" length="5.00" nVehEntered="10"/>
    <interval begin="800.00" end="1000.00" id="3_0" nVehContrib="15" flow="270.00" occupancy="5.16" speed="7.94" harmonicMeanSpeed="7.27" length="5.00" nVehEntered="15"/>
    <interval begin="1000.00" end="1200.00" id="3_0" nVehContrib="0" flow="0.00" occupancy="0.00" speed="-1.00" harmonicMeanSpeed="-1.00" length="-1.00" nVehEntered="0"/>
    <interval begin="1200.00" end="1400.00" id="3_0" nVehContrib="5" flow="90.00" occupancy="1.51" speed="9.60" harmonicMeanSpeed="8.27" length="5.00" nVehEntered="5"/>
    <interval begin="1400.00" end="1600.00" id="3_0" nVehContrib="12" flow="216.00" occupancy="5.23" speed="7.15" harmonicMeanSpeed="6.17" length="5.00" nVehEntered="13"/>
    <interval begin="1600.00" end="1800.00" id="3_0" nVehContrib="6" flow="108.00" occupancy="4.97" speed="3.86" harmonicMeanSpeed="2.81" length="5.00" nVehEntered="5"/>
    <interval begin="1800.00" end="2000.00" id="3_0" nVehContrib="12" flow="216.00" occupancy="4.45" speed="7.57" harmonicMeanSpeed="6.74" length="5.00" nVehEntered="12"/>
    <interval begin="2000.00" end="2200.00" id="3_0" nVehContrib="13" flow="234.00" occupancy="4.05" speed="9.37" harmonicMeanSpeed="8.02" length="5.00" nVehEntered="13"/>
    <interval begin="2200.00" end="2400.00" id="3_0" nVehContrib="0" flow="0.00" occupancy="0.00" speed="-1.00" harmonicMeanSpeed="-1.00" length="-1.00" nVehEntered="0"/>
    <interval begin="2400.00" end="2600.00" id="3_0" nVehContrib="7" flow="126.00" occupancy="2.18" speed="8.84" harmonicMeanSpeed="8.02" length="5.00" nVehEntered="7"/>
    <interval begin="2600.00" end="2800.00" id="3_0" nVehContrib="3" flow="54.00" occupancy="0.59" speed="13.27" harmonicMeanSpeed="12.80" length="5.00" nVehEntered="3"/>
    <interval begin="2800.00" end="3000.00" id="3_0" nVehContrib="0" flow="0.00" occupancy="0.00" speed="-1.00" harmonicMeanSpeed="-1.00" length="-1.00" nVehEntered="0"/>
    <interval begin="3000.00" end="3200.00" id="3_0" nVehContrib="14" flow="252.00" occupancy="5.24" speed="7.82" harmonicMeanSpeed="6.68" length="5.00" nVehEntered="14"/>
    <interval begin="3200.00" end="3400.00" id="3_0" nVehContrib="14" flow="252.00" occupancy="8.69" speed="6.16" harmonicMeanSpeed="4.03" length="5.00" nVehEntered="14"/>
    <interval begin="3400.00" end="3600.00" id="3_0" nVehContrib="0" flow="0.00" occupancy="0.00" speed="-1.00" harmonicMeanSpeed="-1.00" length="-1.00" nVehEntered="0"/>
    <interval begin="3600.00" end="3800.00" id="3_0" nVehContrib="14" flow="252.00" occupancy="7.60" speed="6.73" harmonicMeanSpeed="4.61" length="5.00" nVehEntered="14"/>
    <interval begin="3800.00" end="4000.00" id="3_0" nVehContrib="11" flow="198.00" occupancy="5.10" speed="6.11" harmonicMeanSpeed="5.40" length="5.00" nVehEntered="11"/>
    <interval begin="4000.00" end="4200.00" id="3_0" nVehContrib="0" flow="0.00" occupancy="0.00" speed="-1.00" harmonicMeanSpeed="-1.00" length="-1.00" nVehEntered="0"/>
    <interval begin="4200.00" end="4400.00" id="3_0" nVehContrib="14" flow="252.00" occupancy="5.60" speed="6.80" harmonicMeanSpeed="6.24" length="5.00" nVehEntered="14"/>
    <interval begin="4400.00" end="4600.00" id="3_0" nVehContrib="9" flow="162.00" occupancy="3.01" speed="8.26" harmonicMeanSpeed="7.46" length="5.00" nVehEntered="9"/>
    <interval begin="4600.00" end="4800.00" id="3_0" nVehContrib="0" flow="0.00" occupancy="0.00" speed="-1.00" harmonicMeanSpeed="-1.00" length="-1.00" nVehEntered="0"/>
    <interval begin="4800.00" end="5000.00" id="3_0" nVehContrib="6" flow="108.00" occupancy="1.88" speed="10.04" harmonicMeanSpeed="7.99" length="5.00" nVehEntered="6"/>
    <interval begin="5000.00" end="5200.00" id="3_0" nVehContrib="10" flow="180.00" occupancy="4.18" speed="6.97" harmonicMeanSpeed="5.98" length="5.00" nVehEntered="10"/>
    <interval begin="5200.00" end="5400.00" id="3_0" nVehContrib="0" flow="0.00" occupancy="0.00" speed="-1.00" harmonicMeanSpeed="-1.00" length="-1.00" nVehEntered="0"/>
    <interval begin="5400.00" end="5600.00" id="3_0" nVehContrib="10" flow="180.00" occupancy="3.72" speed="7.15" harmonicMeanSpeed="6.73" length="5.00" nVehEntered="10"/>
    <interval begin="5600.00" end="5800.00" id="3_0" nVehContrib="10" flow="180.00" occupancy="4.10" speed="6.83" harmonicMeanSpeed="6.09" length="5.00" nVehEntered="10"/>
    <interval begin="5800.00" end="6000.00" id="3_0" nVehContrib="0" flow="0.00" occupancy="0.00" speed="-1.00" harmonicMeanSpeed="-1.00" length="-1.00" nVehEntered="0"/>
    <interval begin="6000.00" end="6200.00" id="3_0" nVehContrib="11" flow="198.00" occupancy="4.26" speed="7.19" harmonicMeanSpeed="6.46" length="5.00" nVehEntered="11"/>
    <interval begin="6200.00" end="6400.00" id="3_0" nVehContrib="8" flow="144.00" occupancy="2.93" speed="8.50" harmonicMeanSpeed="6.82" length="5.00" nVehEntered="8"/>
    <interval begin="6400.00" end="6600.00" id="3_0" nVehContrib="7" flow="126.00" occupancy="4.05" speed="4.46" harmonicMeanSpeed="4.32" length="5.00" nVehEntered="7"/>
    <interval begin="6600.00" end="6800.00" id="3_0" nVehContrib="13" flow="234.00" occupancy="5.11" speed="7.30" harmonicMeanSpeed="6.36" length="5.00" nVehEntered="13"/>
    <interval begin="6800.00" end="7000.00" id="3_0" nVehContrib="7" flow="126.00" occupancy="2.00" speed="10.00" harmonicMeanSpeed="8.75" length="5.00" nVehEntered="7"/>
    <interval begin="7000.00" end="7200.00" id="3_0" nVehContrib="3" flow="54.00" occupancy="0.79" speed="10.20" harmonicMeanSpeed="9.50" length="5.00" nVehEntered="3"/>
    <interval begin="7200.00" end="7400.00" id="3_0" nVehContrib="10" flow="180.00" occupancy="4.56" speed="6.04" harmonicMeanSpeed="5.48" length="5.00" nVehEntered="10"/>
    <interval begin="7400.00" end="7600.00" id="3_0" nVehContrib="9" flow="162.00" occupancy="3.10" speed="7.94" harmonicMeanSpeed="7.25" length="5.00" nVehEntered="9"/>
    <interval begin="7600.00" end="7800.00" id="3_0" nVehContrib="0" flow="0.00" occupancy="0.00" speed="-1.00" harmonicMeanSpeed="-1.00" length="-1.00" nVehEntered="0"/>
    <interval begin="7800.00" end="8000.00" id="3_0" nVehContrib="10" flow="180.00" occupancy="3.94" speed="7.69" harmonicMeanSpeed="6.35" length="5.00" nVehEntered="10"/>
    <interval begin="8000.00" end="8200.00" id="3_0" nVehContrib="9" flow="162.00" occupancy="3.31" speed="7.45" harmonicMeanSpeed="6.79" length="5.00" nVehEntered="9"/>
    <interval begin="8200.00" end="8400.00" id="3_0" nVehContrib="0" flow="0.00" occupancy="0.00" speed="-1.00" harmonicMeanSpeed="-1.00" length="-1.00" nVehEntered="0"/>
    <interval begin="8400.00" end="8600.00" id="3_0" nVehContrib="10" flow="180.00" occupancy="3.22" speed="8.72" harmonicMeanSpeed="7.75" length="5.00" nVehEntered="10"/>
    <interval begin="8600.00" end="8800.00" id="3_0" nVehContrib="11" flow="198.00" occupancy="4.27" speed="7.09" harmonicMeanSpeed="6.45" length="5.00" nVehEntered="11"/>
    <interval begin="8800.00" end="9000.00" id="3_0" nVehContrib="0" flow="0.00" occupancy="0.00" speed="-1.00" harmonicMeanSpeed="-1.00" length="-1.00" nVehEntered="0"/>
    <interval begin="9000.00" end="9200.00" id="3_0" nVehContrib="13" flow="234.00" occupancy="5.02" speed="8.08" harmonicMeanSpeed="6.48" length="5.00" nVehEntered="13"/>
    <interval begin="9200.00" end="9400.00" id="3_0" nVehContrib="13" flow="234.00" occupancy="4.85" speed="7.12" harmonicMeanSpeed="6.70" length="5.00" nVehEntered="13"/>
    <interval begin="9400.00" end="9600.00" id="3_0" nVehContrib="0" flow="0.00" occupancy="0.00" speed="-1.00" harmonicMeanSpeed="-1.00" length="-1.00" nVehEntered="0"/>
    <interval begin="9600.00" end="9800.00" id="3_0" nVehContrib="9" flow="162.00" occupancy="3.38" speed="7.87" harmonicMeanSpeed="6.66" length="5.00" nVehEntered="9"/>
    <interval begin="9800.00" end="10000.00" id="3_0" nVehContrib="13" flow="234.00" occupancy="4.80" speed="7.67" harmonicMeanSpeed="6.77" length="5.00" nVehEntered="13"/>
    <interval begin="10000.00" end="10200.00" id="3_0" nVehContrib="0" flow="0.00" occupancy="0.00" speed="-1.00" harmonicMeanSpeed="-1.00" length="-1.00" nVehEntered="0"/>
    <interval begin="10200.00" end="10400.00" id="3_0" nVehContrib="11" flow="198.00" occupancy="3.34" speed="8.63" harmonicMeanSpeed="8.23" length="5.00" nVehEntered="11"/>
    <interval begin="10400.00" end="10600.00" id="3_0" nVehContrib="13" flow="234.00" occupancy="4.95" speed="7.70" harmonicMeanSpeed="6.56" length="5.00" nVehEntered="13"/>
    <interval begin="10600.00" end="10800.00" id="3_0" nVehContrib="0" flow="0.00" occupancy="0.00" speed="-1.00" harmonicMeanSpeed="-1.00" length="-1.00" nVehEntered="0"/>
    <interval begin="10800.00" end="11000.00" id="3_0" nVehContrib="11" flow="198.00" occupancy="5.24" speed="6.00" harmonicMeanSpeed="5.25" length="5.00" nVehEntered="11"/>
    <interval begin="11000.00" end="11200.00" id="3_0" nVehContrib="4" flow="72.00" occupancy="0.79" speed="12.70" harmonicMeanSpeed="12.60" length="5.00" nVehEntered="4"/>
    <interval begin="11200.00" end="11400.00" id="3_0" nVehContrib="0" flow="0.00" occupancy="0.00" speed="-1.00" harmonicMeanSpeed="-1.00" length="-1.00" nVehEntered="0"/>
    <interval begin="11400.00" end="11600.00" id="3_0" nVehContrib="14" flow="252.00" occupancy="5.67" speed="6.88" harmonicMeanSpeed="6.17" length="5.00" nVehEntered="14"/>
    <interval begin="11600.00" end="11800.00" id="3_0" nVehContrib="12" flow="216.00" occupancy="4.57" speed="8.04" harmonicMeanSpeed="6.56" length="5.00" nVehEntered="12"/>
    <interval begin="11800.00" end="12000.00" id="3_0" nVehContrib="0" flow="0.00" occupancy="0.00" speed="-1.00" harmonicMeanSpeed="-1.00" length="-1.00" nVehEntered="0"/>
    <interval begin="12000.00" end="12200.00" id="3_0" nVehContrib="17" flow="306.00" occupancy="9.08" speed="6.47" harmonicMeanSpeed="4.68" length="5.00" nVehEntered="17"/>
    <interval begin="12200.00" end="12400.00" id="3_0" nVehContrib="8" flow="144.00" occupancy="2.75" speed="8.80" harmonicMeanSpeed="7.27" length="5.00" nVehEntered="8"/>
    <interval begin="12400.00" end="12600.00" id="3_0" nVehContrib="0" flow="0.00" occupancy="0.00" speed="-1.00" harmonicMeanSpeed="-1.00" length="-1.00" nVehEntered="0"/>
    <interval begin="12600.00" end="12800.00" id="3_0" nVehContrib="18" flow="324.00" occupancy="9.36" speed="7.54" harmonicMeanSpeed="4.81" length="5.00" nVehEntered="18"/>
    <interval begin="12800.00" end="13000.00" id="3_0" nVehContrib="7" flow="126.00" occupancy="1.64" speed="11.63" harmonicMeanSpeed="10.68" length="5.00" nVehEntered="7"/>
    <interval begin="13000.00" end="13200.00" id="3_0" nVehContrib="0" flow="0.00" occupancy="0.00" speed="-1.00" harmonicMeanSpeed="-1.00" length="-1.00" nVehEntered="0"/>
    <interval begin="13200.00" end="13400.00" id="3_0" nVehContrib="14" flow="252.00" occupancy="6.55" speed="6.12" harmonicMeanSpeed="5.34" length="5.00" nVehEntered="14"/>
    <interval begin="13400.00" end="13600.00" id="3_0" nVehContrib="8" flow="144.00" occupancy="2.44" speed="9.00" harmonicMeanSpeed="8.20" length="5.00" nVehEntered="8"/>
    <interval begin="13600.00" end="13800.00" id="3_0" nVehContrib="0" flow="0.00" occupancy="0.00" speed="-1.00" harmonicMeanSpeed="-1.00" length="-1.00" nVehEntered="0"/>
    <interval begin="13800.00" end="14000.00" id="3_0" nVehContrib="17" flow="306.00" occupancy="18.12" speed="5.35" harmonicMeanSpeed="2.35" length="5.00" nVehEntered="17"/>
    <interval begin="14000.00" end="14200.00" id="3_0" nVehContrib="13" flow="234.00" occupancy="6.98" speed="6.96" harmonicMeanSpeed="4.66" length="5.00" nVehEntered="13"/>
    <interval begin="14200.00" end="14400.00" id="3_0" nVehContrib="5" flow="90.00" occupancy="2.65" speed="4.75" harmonicMeanSpeed="4.72" length="5.00" nVehEntered="5"/>
    <interval begin="14400.00" end="14600.00" id="3_0" nVehContrib="13" flow="234.00" occupancy="5.48" speed="7.15" harmonicMeanSpeed="5.94" length="5.00" nVehEntered="13"/>
    <interval begin="14600.00" end="14800.00" id="3_0" nVehContrib="7" flow="126.00" occupancy="1.59" speed="11.90" harmonicMeanSpeed="11.00" length="5.00" nVehEntered="7"/>
    <interval begin="14800.00" end="15000.00" id="3_0" nVehContrib="0" flow="0.00" occupancy="0.00" speed="-1.00" harmonicMeanSpeed="-1.00" length="-1.00" nVehEntered="0"/>
    <interval begin="15000.00" end="15200.00" id="3_0" nVehContrib="12" flow="216.00" occupancy="8.02" speed="5.96" harmonicMeanSpeed="3.74" length="5.00" nVehEntered="12"/>
    <interval begin="15200.00" end="15400.00" id="3_0" nVehContrib="11" flow="198.00" occupancy="4.51" speed="6.91" harmonicMeanSpeed="6.10" length="5.00" nVehEntered="11"/>
    <interval begin="15400.00" end="15600.00" id="3_0" nVehContrib="0" flow="0.00" occupancy="0.00" speed="-1.00" harmonicMeanSpeed="-1.00" length="-1.00" nVehEntered="0"/>
    <interval begin="15600.00" end="15800.00" id="3_0" nVehContrib="7" flow="126.00" occupancy="2.27" speed="8.87" harmonicMeanSpeed="7.70" length="5.00" nVehEntered="7"/>
    <interval begin="15800.00" end="16000.00" id="3_0" nVehContrib="13" flow="234.00" occupancy="5.94" speed="6.80" harmonicMeanSpeed="5.47" length="5.00" nVehEntered="13"/>
    <interval begin="16000.00" end="16200.00" id="3_0" nVehContrib="0" flow="0.00" occupancy="0.00" speed="-1.00" harmonicMeanSpeed="-1.00" length="-1.00" nVehEntered="0"/>
    <interval begin="16200.00" end="16400.00" id="3_0" nVehContrib="11" flow="198.00" occupancy="4.62" speed="7.34" harmonicMeanSpeed="5.95" length="5.00" nVehEntered="11"/>
    <interval begin="16400.00" end="16600.00" id="3_0" nVehContrib="9" flow="162.00" occupancy="3.59" speed="7.15" harmonicMeanSpeed="6.26" length="5.00" nVehEntered="9"/>
    <interval begin="16600.00" end="16800.00" id="3_0" nVehContrib="0" flow="0.00" occupancy="0.00" speed="-1.00" harmonicMeanSpeed="-1.00" length="-1.00" nVehEntered="0"/>
    <interval begin="16800.00" end="17000.00" id="3_0" nVehContrib="9" flow="162.00" occupancy="2.67" speed="9.79" harmonicMeanSpeed="8.44" length="5.00" nVehEntered="9"/>
    <interval begin="17000.00" end="17200.00" id="3_0" nVehContrib="7" flow="126.00" occupancy="2.34" speed="9.41" harmonicMeanSpeed="7.46" length="5.00" nVehEntered="7"/>
    <interval begin="17200.00" end="17400.00" id="3_0" nVehContrib="0" flow="0.00" occupancy="0.00" speed="-1.00" harmonicMeanSpeed="-1.00" length="-1.00" nVehEntered="0"/>
    <interval begin="17400.00" end="17600.00" id="3_0" nVehContrib="12" flow="216.00" occupancy="4.37" speed="8.06" harmonicMeanSpeed="6.86" length="5.00" nVehEntered="12"/>
    <interval begin="17600.00" end="17800.00" id="3_0" nVehContrib="6" flow="108.00" occupancy="2.36" speed="7.98" harmonicMeanSpeed="6.36" length="5.00" nVehEntered="6"/>
    <interval begin="17800.00" end="18000.00" id="3_0" nVehContrib="0" flow="0.00" occupancy="0.00" speed="-1.00" harmonicMeanSpeed="-1.00" length="-1.00" nVehEntered="0"/>
    <interval begin="18000.00" end="18200.00" id="3_0" nVehContrib="10" flow="180.00" occupancy="3.83" speed="7.74" harmonicMeanSpeed="6.52" length="5.00" nVehEntered="10"/>
    <interval begin="18200.00" end="18400.00" id="3_0" nVehContrib="11" flow="198.00" occupancy="3.99" speed="7.51" harmonicMeanSpeed="6.89" length="5.00" nVehEntered="11"/>
    <interval begin="18400.00" end="18600.00" id="3_0" nVehContrib="0" flow="0.00" occupancy="0.00" speed="-1.00" harmonicMeanSpeed="-1.00" length="-1.00" nVehEntered="0"/>
    <interval begin="18600.00" end="18800.00" id="3_0" nVehContrib="15" flow="270.00" occupancy="7.73" speed="6.00" harmonicMeanSpeed="4.85" length="5.00" nVehEntered="15"/>
    <interval begin="18800.00" end="19000.00" id="3_0" nVehContrib="7" flow="126.00" occupancy="2.20" speed="8.43" harmonicMeanSpeed="7.96" length="5.00" nVehEntered="7"/>
    <interval begin="19000.00" end="19200.00" id="3_0" nVehContrib="0" flow="0.00" occupancy="0.00" speed="-1.00" harmonicMeanSpeed="-1.00" length="-1.00" nVehEntered="0"/>
    <interval begin="19200.00" end="19400.00" id="3_0" nVehContrib="14" flow="252.00" occupancy="5.50" speed="7.36" harmonicMeanSpeed="6.36" length="5.00" nVehEntered="14"/>
    <interval begin="19400.00" end="19600.00" id="3_0" nVehContrib="12" flow="216.00" occupancy="4.72" speed="7.20" harmonicMeanSpeed="6.36" length="5.00" nVehEntered="12"/>
    <interval begin="19600.00" end="19800.00" id="3_0" nVehContrib="0" flow="0.00" occupancy="0.00" speed="-1.00" harmonicMeanSpeed="-1.00" length="-1.00" nVehEntered="0"/>
    <interval begin="19800.00" end="20000.00" id="3_0" nVehContrib="16" flow="288.00" occupancy="9.64" speed="7.22" harmonicMeanSpeed="4.15" length="5.00" nVehEntered="16"/>
    <interval begin="20000.00" end="20200.00" id="3_0" nVehContrib="12" flow="216.00" occupancy="4.21" speed="8.53" harmonicMeanSpeed="7.12" length="5.00" nVehEntered="12"/>
    <interval begin="20200.00" end="20400.00" id="3_0" nVehContrib="0" flow="0.00" occupancy="0.00" speed="-1.00" harmonicMeanSpeed="-1.00" length="-1.00" nVehEntered="0"/>
    <interval begin="20400.00" end="20600.00" id="3_0" nVehContrib="13" flow="234.00" occupancy="4.48" speed="7.81" harmonicMeanSpeed="7.26" length="5.00" nVehEntered="13"/>
    <interval begin="20600.00" end="20800.00" id="3_0" nVehContrib="15" flow="270.00" occupancy="8.85" speed="6.43" harmonicMeanSpeed="4.24" length="5.00" nVehEntered="15"/>
    <interval begin="20800.00" end="21000.00" id="3_0" nVehContrib="1" flow="18.00" occupancy="0.76" speed="3.31" harmonicMeanSpeed="3.31" length="5.00" nVehEntered="1"/>
    <interval begin="21000.00" end="21200.00" id="3_0" nVehContrib="12" flow="216.00" occupancy="3.99" speed="8.33" harmonicMeanSpeed="7.52" length="5.00" nVehEntered="12"/>
    <interval begin="21200.00" end="21400.00" id="3_0" nVehContrib="9" flow="162.00" occupancy="2.79" speed="9.56" harmonicMeanSpeed="8.05" length="5.00" nVehEntered="9"/>
    <interval begin="21400.00" end="21600.00" id="3_0" nVehContrib="0" flow="0.00" occupancy="0.00" speed="-1.00" harmonicMeanSpeed="-1.00" length="-1.00" nVehEntered="0"/>
    <interval begin="21600.00" end="21800.00" id="3_0" nVehContrib="15" flow="270.00" occupancy="8.44" speed="5.62" harmonicMeanSpeed="4.45" length="5.00" nVehEntered="15"/>
    <interval begin="21800.00" end="22000.00" id="3_0" nVehContrib="7" flow="126.00" occupancy="1.77" speed="10.53" harmonicMeanSpeed="9.88" length="5.00" nVehEntered="7"/>
    <interval begin="22000.00" end="22200.00" id="3_0" nVehContrib="0" flow="0.00" occupancy="0.00" speed="-1.00" harmonicMeanSpeed="-1.00" length="-1.00" nVehEntered="0"/>
    <interval begin="22200.00" end="22400.00" id="3_0" nVehContrib="7" flow="126.00" occupancy="1.94" speed="10.48" harmonicMeanSpeed="9.00" length="5.00" nVehEntered="7"/>
    <interval begin="22400.00" end="22600.00" id="3_0" nVehContrib="13" flow="234.00" occupancy="14.41" speed="6.22" harmonicMeanSpeed="2.25" length="5.00" nVehEntered="13"/>
    <interval begin="22600.00" end="22800.00" id="3_0" nVehContrib="0" flow="0.00" occupancy="0.00" speed="-1.00" harmonicMeanSpeed="-1.00" length="-1.00" nVehEntered="0"/>
    <interval begin="22800.00" end="23000.00" id="3_0" nVehContrib="9" flow="162.00" occupancy="3.41" speed="6.87" harmonicMeanSpeed="6.59" length="5.00" nVehEntered="9"/>
    <interval begin="23000.00" end="23200.00" id="3_0" nVehContrib="15" flow="270.00" occupancy="6.01" speed="7.43" harmonicMeanSpeed="6.24" length="5.00" nVehEntered="15"/>
    <interval begin="23200.00" end="23400.00" id="3_0" nVehContrib="0" flow="0.00" occupancy="0.00" speed="-1.00" harmonicMeanSpeed="-1.00" length="-1.00" nVehEntered="0"/>
    <interval begin="23400.00" end="23600.00" id="3_0" nVehContrib="19" flow="342.00" occupancy="8.32" speed="6.31" harmonicMeanSpeed="5.71" length="5.00" nVehEntered="19"/>
    <interval begin="23600.00" end="23800.00" id="3_0" nVehContrib="13" flow="234.00" occupancy="5.35" speed="6.32" harmonicMeanSpeed="6.07" length="5.00" nVehEntered="13"/>
    <interval begin="23800.00" end="24000.00" id="3_0" nVehContrib="0" flow="0.00" occupancy="0.00" speed="-1.00" harmonicMeanSpeed="-1.00" length="-1.00" nVehEntered="0"/>
    <interval begin="24000.00" end="24200.00" id="3_0" nVehContrib="7" flow="126.00" occupancy="2.57" speed="7.72" harmonicMeanSpeed="6.82" length="5.00" nVehEntered="7"/>
    <interval begin="24200.00" end="24400.00" id="3_0" nVehContrib="25" flow="450.00" occupancy="13.56" speed="5.75" harmonicMeanSpeed="4.61" length="5.00" nVehEntered="25"/>
    <interval begin="24400.00" end="24600.00" id="3_0" nVehContrib="0" flow="0.00" occupancy="0.00" speed="-1.00" harmonicMeanSpeed="-1.00" length="-1.00" nVehEntered="0"/>
    <interval begin="24600.00" end="24800.00" id="3_0" nVehContrib="12" flow="216.00" occupancy="7.15" speed="5.64" harmonicMeanSpeed="4.20" length="5.00" nVehEntered="12"/>
    <interval begin="24800.00" end="25000.00" id="3_0" nVehContrib="20" flow="360.00" occupancy="7.98" speed="7.21" harmonicMeanSpeed="6.27" length="5.00" nVehEntered="20"/>
    <interval begin="25000.00" end="25200.00" id="3_0" nVehContrib="0" flow="0.00" occupancy="0.00" speed="-1.00" harmonicMeanSpeed="-1.00" length="-1.00" nVehEntered="0"/>
    <interval begin="25200.00" end="25400.00" id="3_0" nVehContrib="4" flow="72.00" occupancy="1.09" speed="9.46" harmonicMeanSpeed="9.16" length="5.00" nVehEntered="4"/>
    <interval begin="25400.00" end="25600.00" id="3_0" nVehContrib="15" flow="270.00" occupancy="7.84" speed="6.94" harmonicMeanSpeed="4.78" length="5.00" nVehEntered="15"/>
    <interval begin="25600.00" end="25800.00" id="3_0" nVehContrib="9" flow="162.00" occupancy="17.45" speed="4.62" harmonicMeanSpeed="1.29" length="5.00" nVehEntered="9"/>
    <interval begin="25800.00" end="26000.00" id="3_0" nVehContrib="11" flow="198.00" occupancy="3.92" speed="8.11" harmonicMeanSpeed="7.01" length="5.00" nVehEntered="11"/>
    <interval begin="26000.00" end="26200.00" id="3_0" nVehContrib="10" flow="180.00" occupancy="3.86" speed="7.61" harmonicMeanSpeed="6.48" length="5.00" nVehEntered="10"/>
    <interval begin="26200.00" end="26400.00" id="3_0" nVehContrib="0" flow="0.00" occupancy="0.00" speed="-1.00" harmonicMeanSpeed="-1.00" length="-1.00" nVehEntered="0"/>
    <interval begin="26400.00" end="26600.00" id="3_0" nVehContrib="7" flow="126.00" occupancy="2.08" speed="9.89" harmonicMeanSpeed="8.43" length="5.00" nVehEntered="7"/>
    <interval begin="26600.00" end="26800.00" id="3_0" nVehContrib="11" flow="198.00" occupancy="3.55" speed="8.67" harmonicMeanSpeed="7.75" length="5.00" nVehEntered="11"/>
    <interval begin="26800.00" end="27000.00" id="3_0" nVehContrib="0" flow="0.00" occupancy="0.00" speed="-1.00" harmonicMeanSpeed="-1.00" length="-1.00" nVehEntered="0"/>
    <interval begin="27000.00" end="27200.00" id="3_0" nVehContrib="17" flow="306.00" occupancy="7.27" speed="7.07" harmonicMeanSpeed="5.85" length="5.00" nVehEntered="17"/>
    <interval begin="27200.00" end="27400.00" id="3_0" nVehContrib="11" flow="198.00" occupancy="4.38" speed="7.21" harmonicMeanSpeed="6.28" length="5.00" nVehEntered="11"/>
    <interval begin="27400.00" end="27600.00" id="3_0" nVehContrib="0" flow="0.00" occupancy="0.00" speed="-1.00" harmonicMeanSpeed="-1.00" length="-1.00" nVehEntered="0"/>
    <interval begin="27600.00" end="27800.00" id="3_0" nVehContrib="20" flow="360.00" occupancy="8.36" speed="6.94" harmonicMeanSpeed="5.98" length="5.00" nVehEntered="20"/>
    <interval begin="27800.00" end="28000.00" id="3_0" nVehContrib="16" flow="288.00" occupancy="16.34" speed="6.26" harmonicMeanSpeed="2.45" length="5.00" nVehEntered="16"/>
    <interval begin="28000.00" end="28200.00" id="3_0" nVehContrib="0" flow="0.00" occupancy="0.00" speed="-1.00" harmonicMeanSpeed="-1.00" length="-1.00" nVehEntered="0"/>
    <interval begin="28200.00" end="28400.00" id="3_0" nVehContrib="17" flow="306.00" occupancy="6.89" speed="6.71" harmonicMeanSpeed="6.16" length="5.00" nVehEntered="17"/>
    <interval begin="28400.00" end="28600.00" id="3_0" nVehContrib="13" flow="234.00" occupancy="5.19" speed="7.60" harmonicMeanSpeed="6.26" length="5.00" nVehEntered="13"/>
    <interval begin="28600.00" end="28800.00" id="3_0" nVehContrib="0" flow="0.00" occupancy="0.00" speed="-1.00" harmonicMeanSpeed="-1.00" length="-1.00" nVehEntered="0"/>
    <interval begin="28800.00" end="29000.00" id="3_0" nVehContrib="14" flow="252.00" occupancy="8.69" speed="6.43" harmonicMeanSpeed="4.03" length="5.00" nVehEntered="14"/>
    <interval begin="29000.00" end="29200.00" id="3_0" nVehContrib="18" flow="324.00" occupancy="7.23" speed="7.33" harmonicMeanSpeed="6.23" length="5.00" nVehEntered="18"/>
    <interval begin="29200.00" end="29400.00" id="3_0" nVehContrib="0" flow="0.00" occupancy="0.00" speed="-1.00" harmonicMeanSpeed="-1.00" length="-1.00" nVehEntered="0"/>
    <interval begin="29400.00" end="29600.00" id="3_0" nVehContrib="20" flow="360.00" occupancy="10.73" speed="6.21" harmonicMeanSpeed="4.66" length="5.00" nVehEntered="20"/>
    <interval begin="29600.00" end="29800.00" id="3_0" nVehContrib="13" flow="234.00" occupancy="7.91" speed="6.44" harmonicMeanSpeed="4.11" length="5.00" nVehEntered="13"/>
    <interval begin="29800.00" end="30000.00" id="3_0" nVehContrib="6" flow="108.00" occupancy="3.22" speed="4.73" harmonicMeanSpeed="4.65" length="5.00" nVehEntered="6"/>
    <interval begin="30000.00" end="30200.00" id="3_0" nVehContrib="10" flow="180.00" occupancy="3.07" speed="9.27" harmonicMeanSpeed="8.16" length="5.00" nVehEntered="10"/>
    <interval begin="30200.00" end="30400.00" id="3_0" nVehContrib="12" flow="216.00" occupancy="6.54" speed="7.02" harmonicMeanSpeed="4.59" length="5.00" nVehEntered="12"/>
    <interval begin="30400.00" end="30600.00" id="3_0" nVehContrib="11" flow="198.00" occupancy="7.53" speed="4.19" harmonicMeanSpeed="3.65" length="5.00" nVehEntered="11"/>
    <interval begin="30600.00" end="30800.00" id="3_0" nVehContrib="13" flow="234.00" occupancy="5.11" speed="7.34" harmonicMeanSpeed="6.37" length="5.00" nVehEntered="13"/>
    <interval begin="30800.00" end="31000.00" id="3_0" nVehContrib="21" flow="378.00" occupancy="9.54" speed="6.00" harmonicMeanSpeed="5.50" length="5.00" nVehEntered="21"/>
    <interval begin="31000.00" end="31200.00" id="3_0" nVehContrib="0" flow="0.00" occupancy="0.00" speed="-1.00" harmonicMeanSpeed="-1.00" length="-1.00" nVehEntered="0"/>
    <interval begin="31200.00" end="31400.00" id="3_0" nVehContrib="14" flow="252.00" occupancy="15.16" speed="7.01" harmonicMeanSpeed="2.31" length="5.00" nVehEntered="14"/>
    <interval begin="31400.00" end="31600.00" id="3_0" nVehContrib="14" flow="252.00" occupancy="7.82" speed="6.28" harmonicMeanSpeed="4.48" length="5.00" nVehEntered="14"/>
    <interval begin="31600.00" end="31800.00" id="3_0" nVehContrib="2" flow="36.00" occupancy="0.93" speed="5.46" harmonicMeanSpeed="5.37" length="5.00" nVehEntered="2"/>
    <interval begin="31800.00" end="32000.00" id="3_0" nVehContrib="15" flow="270.00" occupancy="5.79" speed="7.35" harmonicMeanSpeed="6.47" length="5.00" nVehEntered="15"/>
    <interval begin="32000.00" end="32200.00" id="3_0" nVehContrib="18" flow="324.00" occupancy="7.86" speed="6.59" harmonicMeanSpeed="5.73" length="5.00" nVehEntered="18"/>
    <interval begin="32200.00" end="32400.00" id="3_0" nVehContrib="2" flow="36.00" occupancy="1.06" speed="4.99" harmonicMeanSpeed="4.72" length="5.00" nVehEntered="2"/>
    <interval begin="32400.00" end="32600.00" id="3_0" nVehContrib="18" flow="324.00" occupancy="8.81" speed="6.81" harmonicMeanSpeed="5.11" length="5.00" nVehEntered="18"/>
    <interval begin="32600.00" end="32800.00" id="3_0" nVehContrib="25" flow="450.00" occupancy="12.38" speed="5.38" harmonicMeanSpeed="5.05" length="5.00" nVehEntered="25"/>
    <interval begin="32800.00" end="33000.00" id="3_0" nVehContrib="0" flow="0.00" occupancy="0.00" speed="-1.00" harmonicMeanSpeed="-1.00" length="-1.00" nVehEntered="0"/>
    <interval begin="33000.00" end="33200.00" id="3_0" nVehContrib="28" flow="504.00" occupancy="36.21" speed="5.73" harmonicMeanSpeed="1.94" length="5.00" nVehEntered="29"/>