<?xml version="1.0" encoding="UTF-8"?>

<!-- generated on 2022-10-27 13:57:18 by Eclipse SUMO GUI Version 1.12.0
<configuration xmlns:xsi="http://www.w3.org/2001/XMLSchema-instance" xsi:noNamespaceSchemaLocation="http://sumo.dlr.de/xsd/sumoConfiguration.xsd">

    <input>
        <net-file value="C:\Users\Burak\Desktop\mosas-projesi\QL_Tek_serit_Kilis_7902_Mosas_Verisi\mosas_kilis_7902_delay_based.net.xml"/>
        <route-files value="C:\Users\Burak\Desktop\mosas-projesi\QL_Tek_serit_Kilis_7902_Mosas_Verisi\episode_routes.rou.xml"/>
        <additional-files value="C:\Users\Burak\Desktop\mosas-projesi\QL_Tek_serit_Kilis_7902_Mosas_Verisi\mosas_kilis_7902.det.xml"/>
    </input>

    <output>
        <tripinfo-output value="C:\Users\Burak\Desktop\mosas-projesi\QL_Tek_serit_Kilis_7902_Mosas_Verisi\my_intersection.trips.xml"/>
    </output>

    <time>
        <begin value="0"/>
        <end value="60000"/>
    </time>

    <report>
        <verbose value="true"/>
        <log value="C:\Users\Burak\Desktop\mosas-projesi\QL_Tek_serit_Kilis_7902_Mosas_Verisi\my_out.xml"/>
        <no-step-log value="true"/>
    </report>

</configuration>
-->

<detector xmlns:xsi="http://www.w3.org/2001/XMLSchema-instance" xsi:noNamespaceSchemaLocation="http://sumo.dlr.de/xsd/det_e1_file.xsd">
    <interval begin="0.00" end="200.00" id="2_0" nVehContrib="18" flow="324.00" occupancy="22.90" speed="5.57" harmonicMeanSpeed="1.96" length="5.00" nVehEntered="18"/>
    <interval begin="200.00" end="400.00" id="2_0" nVehContrib="13" flow="234.00" occupancy="19.04" speed="7.16" harmonicMeanSpeed="5.69" length="5.00" nVehEntered="14"/>
    <interval begin="400.00" end="600.00" id="2_0" nVehContrib="18" flow="324.00" occupancy="15.86" speed="5.86" harmonicMeanSpeed="1.54" length="5.00" nVehEntered="17"/>
    <interval begin="600.00" end="800.00" id="2_0" nVehContrib="14" flow="252.00" occupancy="27.63" speed="5.06" harmonicMeanSpeed="1.27" length="5.00" nVehEntered="14"/>
    <interval begin="800.00" end="1000.00" id="2_0" nVehContrib="13" flow="234.00" occupancy="5.17" speed="7.51" harmonicMeanSpeed="6.29" length="5.00" nVehEntered="13"/>
    <interval begin="1000.00" end="1200.00" id="2_0" nVehContrib="0" flow="0.00" occupancy="0.00" speed="-1.00" harmonicMeanSpeed="-1.00" length="-1.00" nVehEntered="0"/>
    <interval begin="1200.00" end="1400.00" id="2_0" nVehContrib="20" flow="360.00" occupancy="9.18" speed="6.21" harmonicMeanSpeed="5.45" length="5.00" nVehEntered="20"/>
    <interval begin="1400.00" end="1600.00" id="2_0" nVehContrib="13" flow="234.00" occupancy="5.42" speed="7.52" harmonicMeanSpeed="6.41" length="5.00" nVehEntered="14"/>
    <interval begin="1600.00" end="1800.00" id="2_0" nVehContrib="2" flow="36.00" occupancy="0.82" speed="4.28" harmonicMeanSpeed="4.27" length="5.00" nVehEntered="1"/>
    <interval begin="1800.00" end="2000.00" id="2_0" nVehContrib="20" flow="360.00" occupancy="8.58" speed="7.29" harmonicMeanSpeed="5.83" length="5.00" nVehEntered="20"/>
    <interval begin="2000.00" end="2200.00" id="2_0" nVehContrib="14" flow="252.00" occupancy="15.26" speed="7.42" harmonicMeanSpeed="2.29" length="5.00" nVehEntered="14"/>
    <interval begin="2200.00" end="2400.00" id="2_0" nVehContrib="0" flow="0.00" occupancy="0.00" speed="-1.00" harmonicMeanSpeed="-1.00" length="-1.00" nVehEntered="0"/>
    <interval begin="2400.00" end="2600.00" id="2_0" nVehContrib="17" flow="306.00" occupancy="7.80" speed="6.16" harmonicMeanSpeed="5.45" length="5.00" nVehEntered="17"/>
    <interval begin="2600.00" end="2800.00" id="2_0" nVehContrib="9" flow="162.00" occupancy="2.86" speed="8.72" harmonicMeanSpeed="7.87" length="5.00" nVehEntered="9"/>
    <interval begin="2800.00" end="3000.00" id="2_0" nVehContrib="0" flow="0.00" occupancy="0.00" speed="-1.00" harmonicMeanSpeed="-1.00" length="-1.00" nVehEntered="0"/>
    <interval begin="3000.00" end="3200.00" id="2_0" nVehContrib="17" flow="306.00" occupancy="6.75" speed="7.58" harmonicMeanSpeed="6.29" length="5.00" nVehEntered="17"/>
    <interval begin="3200.00" end="3400.00" id="2_0" nVehContrib="11" flow="198.00" occupancy="3.73" speed="9.20" harmonicMeanSpeed="7.37" length="5.00" nVehEntered="11"/>
    <interval begin="3400.00" end="3600.00" id="2_0" nVehContrib="0" flow="0.00" occupancy="0.00" speed="-1.00" harmonicMeanSpeed="-1.00" length="-1.00" nVehEntered="0"/>
    <interval begin="3600.00" end="3800.00" id="2_0" nVehContrib="12" flow="216.00" occupancy="4.26" speed="7.45" harmonicMeanSpeed="7.05" length="5.00" nVehEntered="12"/>
    <interval begin="3800.00" end="4000.00" id="2_0" nVehContrib="13" flow="234.00" occupancy="5.55" speed="6.82" harmonicMeanSpeed="5.86" length="5.00" nVehEntered="13"/>
    <interval begin="4000.00" end="4200.00" id="2_0" nVehContrib="0" flow="0.00" occupancy="0.00" speed="-1.00" harmonicMeanSpeed="-1.00" length="-1.00" nVehEntered="0"/>
    <interval begin="4200.00" end="4400.00" id="2_0" nVehContrib="13" flow="234.00" occupancy="4.51" speed="9.54" harmonicMeanSpeed="7.20" length="5.00" nVehEntered="13"/>
    <interval begin="4400.00" end="4600.00" id="2_0" nVehContrib="11" flow="198.00" occupancy="4.35" speed="7.87" harmonicMeanSpeed="6.90" length="5.00" nVehEntered="12"/>
    <interval begin="4600.00" end="4800.00" id="2_0" nVehContrib="5" flow="90.00" occupancy="1.88" speed="5.86" harmonicMeanSpeed="5.57" length="5.00" nVehEntered="4"/>
    <interval begin="4800.00" end="5000.00" id="2_0" nVehContrib="10" flow="180.00" occupancy="3.44" speed="8.53" harmonicMeanSpeed="7.27" length="5.00" nVehEntered="10"/>
    <interval begin="5000.00" end="5200.00" id="2_0" nVehContrib="17" flow="306.00" occupancy="7.02" speed="6.92" harmonicMeanSpeed="6.06" length="5.00" nVehEntered="17"/>
    <interval begin="5200.00" end="5400.00" id="2_0" nVehContrib="0" flow="0.00" occupancy="0.00" speed="-1.00" harmonicMeanSpeed="-1.00" length="-1.00" nVehEntered="0"/>
    <interval begin="5400.00" end="5600.00" id="2_0" nVehContrib="10" flow="180.00" occupancy="3.47" speed="8.77" harmonicMeanSpeed="7.20" length="5.00" nVehEntered="10"/>
    <interval begin="5600.00" end="5800.00" id="2_0" nVehContrib="11" flow="198.00" occupancy="4.27" speed="7.13" harmonicMeanSpeed="6.44" length="5.00" nVehEntered="11"/>
    <interval begin="5800.00" end="6000.00" id="2_0" nVehContrib="0" flow="0.00" occupancy="0.00" speed="-1.00" harmonicMeanSpeed="-1.00" length="-1.00" nVehEntered="0"/>
    <interval begin="6000.00" end="6200.00" id="2_0" nVehContrib="8" flow="144.00" occupancy="3.48" speed="6.45" harmonicMeanSpeed="5.75" length="5.00" nVehEntered="8"/>
    <interval begin="6200.00" end="6400.00" id="2_0" nVehContrib="18" flow="324.00" occupancy="8.13" speed="6.36" harmonicMeanSpeed="5.53" length="5.00" nVehEntered="18"/>
    <interval begin="6400.00" end="6600.00" id="2_0" nVehContrib="0" flow="0.00" occupancy="0.00" speed="-1.00" harmonicMeanSpeed="-1.00" length="-1.00" nVehEntered="0"/>
    <interval begin="6600.00" end="6800.00" id="2_0" nVehContrib="8" flow="144.00" occupancy="2.68" speed="8.32" harmonicMeanSpeed="7.46" length="5.00" nVehEntered="8"/>
    <interval begin="6800.00" end="7000.00" id="2_0" nVehContrib="7" flow="126.00" occupancy="1.80" speed="10.29" harmonicMeanSpeed="9.73" length="5.00" nVehEntered="7"/>
    <interval begin="7000.00" end="7200.00" id="2_0" nVehContrib="0" flow="0.00" occupancy="0.00" speed="-1.00" harmonicMeanSpeed="-1.00" length="-1.00" nVehEntered="0"/>
    <interval begin="7200.00" end="7400.00" id="2_0" nVehContrib="12" flow="216.00" occupancy="4.94" speed="6.92" harmonicMeanSpeed="6.08" length="5.00" nVehEntered="12"/>
    <interval begin="7400.00" end="7600.00" id="2_0" nVehContrib="18" flow="324.00" occupancy="24.40" speed="5.97" harmonicMeanSpeed="1.84" length="5.00" nVehEntered="18"/>
    <interval begin="7600.00" end="7800.00" id="2_0" nVehContrib="0" flow="0.00" occupancy="0.00" speed="-1.00" harmonicMeanSpeed="-1.00" length="-1.00" nVehEntered="0"/>
    <interval begin="7800.00" end="8000.00" id="2_0" nVehContrib="12" flow="216.00" occupancy="5.11" speed="6.48" harmonicMeanSpeed="5.87" length="5.00" nVehEntered="12"/>
    <interval begin="8000.00" end="8200.00" id="2_0" nVehContrib="18" flow="324.00" occupancy="10.40" speed="6.71" harmonicMeanSpeed="4.33" length="5.00" nVehEntered="18"/>
    <interval begin="8200.00" end="8400.00" id="2_0" nVehContrib="0" flow="0.00" occupancy="0.00" speed="-1.00" harmonicMeanSpeed="-1.00" length="-1.00" nVehEntered="0"/>
    <interval begin="8400.00" end="8600.00" id="2_0" nVehContrib="18" flow="324.00" occupancy="15.57" speed="5.83" harmonicMeanSpeed="2.89" length="5.00" nVehEntered="18"/>
    <interval begin="8600.00" end="8800.00" id="2_0" nVehContrib="16" flow="288.00" occupancy="6.83" speed="7.36" harmonicMeanSpeed="5.86" length="5.00" nVehEntered="16"/>
    <interval begin="8800.00" end="9000.00" id="2_0" nVehContrib="0" flow="0.00" occupancy="0.00" speed="-1.00" harmonicMeanSpeed="-1.00" length="-1.00" nVehEntered="0"/>
    <interval begin="9000.00" end="9200.00" id="2_0" nVehContrib="7" flow="126.00" occupancy="1.65" speed="11.29" harmonicMeanSpeed="10.61" length="5.00" nVehEntered="7"/>
    <interval begin="9200.00" end="9400.00" id="2_0" nVehContrib="14" flow="252.00" occupancy="5.27" speed="8.31" harmonicMeanSpeed="6.64" length="5.00" nVehEntered="14"/>
    <interval begin="9400.00" end="9600.00" id="2_0" nVehContrib="0" flow="0.00" occupancy="0.00" speed="-1.00" harmonicMeanSpeed="-1.00" length="-1.00" nVehEntered="0"/>
    <interval begin="9600.00" end="9800.00" id="2_0" nVehContrib="16" flow="288.00" occupancy="6.87" speed="7.34" harmonicMeanSpeed="5.82" length="5.00" nVehEntered="16"/>
    <interval begin="9800.00" end="10000.00" id="2_0" nVehContrib="5" flow="90.00" occupancy="1.07" speed="12.05" harmonicMeanSpeed="11.70" length="5.00" nVehEntered="5"/>
    <interval begin="10000.00" end="10200.00" id="2_0" nVehContrib="0" flow="0.00" occupancy="0.00" speed="-1.00" harmonicMeanSpeed="-1.00" length="-1.00" nVehEntered="0"/>
    <interval begin="10200.00" end="10400.00" id="2_0" nVehContrib="13" flow="234.00" occupancy="4.41" speed="8.22" harmonicMeanSpeed="7.36" length="5.00" nVehEntered="13"/>
    <interval begin="10400.00" end="10600.00" id="2_0" nVehContrib="10" flow="180.00" occupancy="3.24" speed="8.99" harmonicMeanSpeed="7.72" length="5.00" nVehEntered="10"/>
    <interval begin="10600.00" end="10800.00" id="2_0" nVehContrib="0" flow="0.00" occupancy="0.00" speed="-1.00" harmonicMeanSpeed="-1.00" length="-1.00" nVehEntered="0"/>
    <interval begin="10800.00" end="11000.00" id="2_0" nVehContrib="9" flow="162.00" occupancy="3.04" speed="8.34" harmonicMeanSpeed="7.41" length="5.00" nVehEntered="9"/>
    <interval begin="11000.00" end="11200.00" id="2_0" nVehContrib="18" flow="324.00" occupancy="7.48" speed="6.90" harmonicMeanSpeed="6.02" length="5.00" nVehEntered="18"/>
    <interval begin="11200.00" end="11400.00" id="2_0" nVehContrib="0" flow="0.00" occupancy="0.00" speed="-1.00" harmonicMeanSpeed="-1.00" length="-1.00" nVehEntered="0"/>
    <interval begin="11400.00" end="11600.00" id="2_0" nVehContrib="8" flow="144.00" occupancy="1.56" speed="13.11" harmonicMeanSpeed="12.81" length="5.00" nVehEntered="8"/>
    <interval begin="11600.00" end="11800.00" id="2_0" nVehContrib="10" flow="180.00" occupancy="2.54" speed="10.86" harmonicMeanSpeed="9.84" length="5.00" nVehEntered="10"/>
    <interval begin="11800.00" end="12000.00" id="2_0" nVehContrib="0" flow="0.00" occupancy="0.00" speed="-1.00" harmonicMeanSpeed="-1.00" length="-1.00" nVehEntered="0"/>
    <interval begin="12000.00" end="12200.00" id="2_0" nVehContrib="14" flow="252.00" occupancy="4.78" speed="8.59" harmonicMeanSpeed="7.32" length="5.00" nVehEntered="14"/>
    <interval begin="12200.00" end="12400.00" id="2_0" nVehContrib="13" flow="234.00" occupancy="4.32" speed="8.62" harmonicMeanSpeed="7.53" length="5.00" nVehEntered="13"/>
    <interval begin="12400.00" end="12600.00" id="2_0" nVehContrib="0" flow="0.00" occupancy="0.00" speed="-1.00" harmonicMeanSpeed="-1.00" length="-1.00" nVehEntered="0"/>
    <interval begin="12600.00" end="12800.00" id="2_0" nVehContrib="15" flow="270.00" occupancy="18.78" speed="6.07" harmonicMeanSpeed="2.00" length="5.00" nVehEntered="15"/>
    <interval begin="12800.00" end="13000.00" id="2_0" nVehContrib="8" flow="144.00" occupancy="2.38" speed="9.07" harmonicMeanSpeed="8.42" length="5.00" nVehEntered="8"/>
    <interval begin="13000.00" end="13200.00" id="2_0" nVehContrib="0" flow="0.00" occupancy="0.00" speed="-1.00" harmonicMeanSpeed="-1.00" length="-1.00" nVehEntered="0"/>
    <interval begin="13200.00" end="13400.00" id="2_0" nVehContrib="14" flow="252.00" occupancy="5.50" speed="7.60" harmonicMeanSpeed="6.37" length="5.00" nVehEntered="14"/>
    <interval begin="13400.00" end="13600.00" id="2_0" nVehContrib="12" flow="216.00" occupancy="5.01" speed="6.73" harmonicMeanSpeed="5.98" length="5.00" nVehEntered="12"/>
    <interval begin="13600.00" end="13800.00" id="2_0" nVehContrib="0" flow="0.00" occupancy="0.00" speed="-1.00" harmonicMeanSpeed="-1.00" length="-1.00" nVehEntered="0"/>
    <interval begin="13800.00" end="14000.00" id="2_0" nVehContrib="7" flow="126.00" occupancy="1.70" speed="10.85" harmonicMeanSpeed="10.32" length="5.00" nVehEntered="7"/>
    <interval begin="14000.00" end="14200.00" id="2_0" nVehContrib="10" flow="180.00" occupancy="3.48" speed="8.23" harmonicMeanSpeed="7.18" length="5.00" nVehEntered="10"/>
    <interval begin="14200.00" end="14400.00" id="2_0" nVehContrib="0" flow="0.00" occupancy="0.00" speed="-1.00" harmonicMeanSpeed="-1.00" length="-1.00" nVehEntered="0"/>
    <interval begin="14400.00" end="14600.00" id="2_0" nVehContrib="16" flow="288.00" occupancy="17.07" speed="5.78" harmonicMeanSpeed="2.34" length="5.00" nVehEntered="16"/>
    <interval begin="14600.00" end="14800.00" id="2_0" nVehContrib="17" flow="306.00" occupancy="7.18" speed="7.21" harmonicMeanSpeed="5.92" length="5.00" nVehEntered="17"/>
    <interval begin="14800.00" end="15000.00" id="2_0" nVehContrib="0" flow="0.00" occupancy="0.00" speed="-1.00" harmonicMeanSpeed="-1.00" length="-1.00" nVehEntered="0"/>
    <interval begin="15000.00" end="15200.00" id="2_0" nVehContrib="6" flow="108.00" occupancy="1.55" speed="10.51" harmonicMeanSpeed="9.67" length="5.00" nVehEntered="6"/>
    <interval begin="15200.00" end="15400.00" id="2_0" nVehContrib="14" flow="252.00" occupancy="6.02" speed="6.58" harmonicMeanSpeed="5.98" length="5.00" nVehEntered="15"/>
    <interval begin="15400.00" end="15600.00" id="2_0" nVehContrib="1" flow="18.00" occupancy="0.48" speed="3.88" harmonicMeanSpeed="3.88" length="5.00" nVehEntered="0"/>
    <interval begin="15600.00" end="15800.00" id="2_0" nVehContrib="10" flow="180.00" occupancy="3.14" speed="9.64" harmonicMeanSpeed="7.97" length="5.00" nVehEntered="10"/>
    <interval begin="15800.00" end="16000.00" id="2_0" nVehContrib="11" flow="198.00" occupancy="4.13" speed="7.54" harmonicMeanSpeed="6.65" length="5.00" nVehEntered="11"/>
    <interval begin="16000.00" end="16200.00" id="2_0" nVehContrib="0" flow="0.00" occupancy="0.00" speed="-1.00" harmonicMeanSpeed="-1.00" length="-1.00" nVehEntered="0"/>
    <interval begin="16200.00" end="16400.00" id="2_0" nVehContrib="13" flow="234.00" occupancy="5.20" speed="7.47" harmonicMeanSpeed="6.25" length="5.00" nVehEntered="13"/>
    <interval begin="16400.00" end="16600.00" id="2_0" nVehContrib="9" flow="162.00" occupancy="3.46" speed="7.31" harmonicMeanSpeed="6.50" length="5.00" nVehEntered="9"/>
    <interval begin="16600.00" end="16800.00" id="2_0" nVehContrib="0" flow="0.00" occupancy="0.00" speed="-1.00" harmonicMeanSpeed="-1.00" length="-1.00" nVehEntered="0"/>
    <interval begin="16800.00" end="17000.00" id="2_0" nVehContrib="6" flow="108.00" occupancy="1.77" speed="9.76" harmonicMeanSpeed="8.47" length="5.00" nVehEntered="6"/>
    <interval begin="17000.00" end="17200.00" id="2_0" nVehContrib="8" flow="144.00" occupancy="2.41" speed="10.53" harmonicMeanSpeed="8.29" length="5.00" nVehEntered="8"/>
    <interval begin="17200.00" end="17400.00" id="2_0" nVehContrib="0" flow="0.00" occupancy="0.00" speed="-1.00" harmonicMeanSpeed="-1.00" length="-1.00" nVehEntered="0"/>
    <interval begin="17400.00" end="17600.00" id="2_0" nVehContrib="9" flow="162.00" occupancy="3.67" speed="7.97" harmonicMeanSpeed="6.13" length="5.00" nVehEntered="9"/>
    <interval begin="17600.00" end="17800.00" id="2_0" nVehContrib="11" flow="198.00" occupancy="4.36" speed="7.21" harmonicMeanSpeed="6.31" length="5.00" nVehEntered="11"/>
    <interval begin="17800.00" end="18000.00" id="2_0" nVehContrib="0" flow="0.00" occupancy="0.00" speed="-1.00" harmonicMeanSpeed="-1.00" length="-1.00" nVehEntered="0"/>
    <interval begin="18000.00" end="18200.00" id="2_0" nVehContrib="18" flow="324.00" occupancy="7.62" speed="6.98" harmonicMeanSpeed="5.90" length="5.00" nVehEntered="18"/>
    <interval begin="18200.00" end="18400.00" id="2_0" nVehContrib="15" flow="270.00" occupancy="14.30" speed="5.78" harmonicMeanSpeed="2.70" length="5.00" nVehEntered="16"/>
    <interval begin="18400.00" end="18600.00" id="2_0" nVehContrib="2" flow="36.00" occupancy="0.85" speed="4.00" harmonicMeanSpeed="3.99" length="5.00" nVehEntered="1"/>
    <interval begin="18600.00" end="18800.00" id="2_0" nVehContrib="13" flow="234.00" occupancy="4.52" speed="7.98" harmonicMeanSpeed="7.19" length="5.00" nVehEntered="13"/>
    <interval begin="18800.00" end="19000.00" id="2_0" nVehContrib="4" flow="72.00" occupancy="0.80" speed="12.70" harmonicMeanSpeed="12.47" length="5.00" nVehEntered="4"/>
    <interval begin="19000.00" end="19200.00" id="2_0" nVehContrib="8" flow="144.00" occupancy="3.27" speed="7.55" harmonicMeanSpeed="6.13" length="5.00" nVehEntered="8"/>
    <interval begin="19200.00" end="19400.00" id="2_0" nVehContrib="12" flow="216.00" occupancy="4.04" speed="8.58" harmonicMeanSpeed="7.43" length="5.00" nVehEntered="12"/>
    <interval begin="19400.00" end="19600.00" id="2_0" nVehContrib="13" flow="234.00" occupancy="9.19" speed="7.11" harmonicMeanSpeed="5.53" length="5.00" nVehEntered="14"/>
    <interval begin="19600.00" end="19800.00" id="2_0" nVehContrib="6" flow="108.00" occupancy="4.69" speed="3.74" harmonicMeanSpeed="1.88" length="5.00" nVehEntered="5"/>
    <interval begin="19800.00" end="20000.00" id="2_0" nVehContrib="9" flow="162.00" occupancy="2.99" speed="8.86" harmonicMeanSpeed="7.52" length="5.00" nVehEntered="9"/>
    <interval begin="20000.00" end="20200.00" id="2_0" nVehContrib="15" flow="270.00" occupancy="6.25" speed="6.40" harmonicMeanSpeed="6.00" length="5.00" nVehEntered="15"/>
    <interval begin="20200.00" end="20400.00" id="2_0" nVehContrib="0" flow="0.00" occupancy="0.00" speed="-1.00" harmonicMeanSpeed="-1.00" length="-1.00" nVehEntered="0"/>
    <interval begin="20400.00" end="20600.00" id="2_0" nVehContrib="6" flow="108.00" occupancy="1.81" speed="9.26" harmonicMeanSpeed="8.26" length="5.00" nVehEntered="6"/>
    <interval begin="20600.00" end="20800.00" id="2_0" nVehContrib="21" flow="378.00" occupancy="8.41" speed="7.35" harmonicMeanSpeed="6.25" length="5.00" nVehEntered="21"/>
    <interval begin="20800.00" end="21000.00" id="2_0" nVehContrib="0" flow="0.00" occupancy="0.00" speed="-1.00" harmonicMeanSpeed="-1.00" length="-1.00" nVehEntered="0"/>
    <interval begin="21000.00" end="21200.00" id="2_0" nVehContrib="15" flow="270.00" occupancy="23.02" speed="6.44" harmonicMeanSpeed="1.63" length="5.00" nVehEntered="15"/>
    <interval begin="21200.00" end="21400.00" id="2_0" nVehContrib="10" flow="180.00" occupancy="3.17" speed="9.23" harmonicMeanSpeed="7.88" length="5.00" nVehEntered="10"/>
    <interval begin="21400.00" end="21600.00" id="2_0" nVehContrib="0" flow="0.00" occupancy="0.00" speed="-1.00" harmonicMeanSpeed="-1.00" length="-1.00" nVehEntered="0"/>
    <interval begin="21600.00" end="21800.00" id="2_0" nVehContrib="11" flow="198.00" occupancy="4.13" speed="8.03" harmonicMeanSpeed="6.65" length="5.00" nVehEntered="11"/>
    <interval begin="21800.00" end="22000.00" id="2_0" nVehContrib="9" flow="162.00" occupancy="3.67" speed="7.28" harmonicMeanSpeed="6.13" length="5.00" nVehEntered="9"/>
    <interval begin="22000.00" end="22200.00" id="2_0" nVehContrib="0" flow="0.00" occupancy="0.00" speed="-1.00" harmonicMeanSpeed="-1.00" length="-1.00" nVehEntered="0"/>
    <interval begin="22200.00" end="22400.00" id="2_0" nVehContrib="17" flow="306.00" occupancy="11.04" speed="6.92" harmonicMeanSpeed="3.85" length="5.00" nVehEntered="17"/>
    <interval begin="22400.00" end="22600.00" id="2_0" nVehContrib="9" flow="162.00" occupancy="2.86" speed="8.80" harmonicMeanSpeed="7.87" length="5.00" nVehEntered="9"/>
    <interval begin="22600.00" end="22800.00" id="2_0" nVehContrib="0" flow="0.00" occupancy="0.00" speed="-1.00" harmonicMeanSpeed="-1.00" length="-1.00" nVehEntered="0"/>
    <interval begin="22800.00" end="23000.00" id="2_0" nVehContrib="14" flow="252.00" occupancy="5.19" speed="7.31" harmonicMeanSpeed="6.75" length="5.00" nVehEntered="14"/>
    <interval begin="23000.00" end="23200.00" id="2_0" nVehContrib="16" flow="288.00" occupancy="7.03" speed="6.43" harmonicMeanSpeed="5.69" length="5.00" nVehEntered="16"/>
    <interval begin="23200.00" end="23400.00" id="2_0" nVehContrib="0" flow="0.00" occupancy="0.00" speed="-1.00" harmonicMeanSpeed="-1.00" length="-1.00" nVehEntered="0"/>
    <interval begin="23400.00" end="23600.00" id="2_0" nVehContrib="21" flow="378.00" occupancy="8.82" speed="6.90" harmonicMeanSpeed="5.95" length="5.00" nVehEntered="21"/>
    <interval begin="23600.00" end="23800.00" id="2_0" nVehContrib="3" flow="54.00" occupancy="0.68" speed="11.33" harmonicMeanSpeed="10.96" length="5.00" nVehEntered="3"/>
    <interval begin="23800.00" end="24000.00" id="2_0" nVehContrib="7" flow="126.00" occupancy="3.25" speed="5.55" harmonicMeanSpeed="5.38" length="5.00" nVehEntered="7"/>
    <interval begin="24000.00" end="24200.00" id="2_0" nVehContrib="13" flow="234.00" occupancy="5.98" speed="6.14" harmonicMeanSpeed="5.44" length="5.00" nVehEntered="13"/>
    <interval begin="24200.00" end="24400.00" id="2_0" nVehContrib="11" flow="198.00" occupancy="3.44" speed="8.92" harmonicMeanSpeed="8.00" length="5.00" nVehEntered="11"/>
    <interval begin="24400.00" end="24600.00" id="2_0" nVehContrib="0" flow="0.00" occupancy="0.00" speed="-1.00" harmonicMeanSpeed="-1.00" length="-1.00" nVehEntered="0"/>
    <interval begin="24600.00" end="24800.00" id="2_0" nVehContrib="19" flow="342.00" occupancy="8.67" speed="6.14" harmonicMeanSpeed="5.48" length="5.00" nVehEntered="19"/>
    <interval begin="24800.00" end="25000.00" id="2_0" nVehContrib="7" flow="126.00" occupancy="2.54" speed="8.05" harmonicMeanSpeed="6.88" length="5.00" nVehEntered="7"/>
    <interval begin="25000.00" end="25200.00" id="2_0" nVehContrib="0" flow="0.00" occupancy="0.00" speed="-1.00" harmonicMeanSpeed="-1.00" length="-1.00" nVehEntered="0"/>
    <interval begin="25200.00" end="25400.00" id="2_0" nVehContrib="14" flow="252.00" occupancy="5.75" speed="6.80" harmonicMeanSpeed="6.09" length="5.00" nVehEntered="14"/>
    <interval begin="25400.00" end="25600.00" id="2_0" nVehContrib="11" flow="198.00" occupancy="4.22" speed="8.13" harmonicMeanSpeed="6.52" length="5.00" nVehEntered="11"/>
    <interval begin="25600.00" end="25800.00" id="2_0" nVehContrib="0" flow="0.00" occupancy="0.00" speed="-1.00" harmonicMeanSpeed="-1.00" length="-1.00" nVehEntered="0"/>
    <interval begin="25800.00" end="26000.00" id="2_0" nVehContrib="11" flow="198.00" occupancy="3.67" speed="8.62" harmonicMeanSpeed="7.50" length="5.00" nVehEntered="11"/>
    <interval begin="26000.00" end="26200.00" id="2_0" nVehContrib="9" flow="162.00" occupancy="3.37" speed="7.81" harmonicMeanSpeed="6.68" length="5.00" nVehEntered="9"/>
    <interval begin="26200.00" end="26400.00" id="2_0" nVehContrib="0" flow="0.00" occupancy="0.00" speed="-1.00" harmonicMeanSpeed="-1.00" length="-1.00" nVehEntered="0"/>
    <interval begin="26400.00" end="26600.00" id="2_0" nVehContrib="19" flow="342.00" occupancy="7.98" speed="6.85" harmonicMeanSpeed="5.95" length="5.00" nVehEntered="19"/>
    <interval begin="26600.00" end="26800.00" id="2_0" nVehContrib="9" flow="162.00" occupancy="2.94" speed="8.59" harmonicMeanSpeed="7.66" length="5.00" nVehEntered="9"/>
    <interval begin="26800.00" end="27000.00" id="2_0" nVehContrib="0" flow="0.00" occupancy="0.00" speed="-1.00" harmonicMeanSpeed="-1.00" length="-1.00" nVehEntered="0"/>
    <interval begin="27000.00" end="27200.00" id="2_0" nVehContrib="9" flow="162.00" occupancy="2.94" speed="8.61" harmonicMeanSpeed="7.65" length="5.00" nVehEntered="9"/>
    <interval begin="27200.00" end="27400.00" id="2_0" nVehContrib="15" flow="270.00" occupancy="5.88" speed="7.64" harmonicMeanSpeed="6.38" length="5.00" nVehEntered="15"/>
    <interval begin="27400.00" end="27600.00" id="2_0" nVehContrib="0" flow="0.00" occupancy="0.00" speed="-1.00" harmonicMeanSpeed="-1.00" length="-1.00" nVehEntered="0"/>
    <interval begin="27600.00" end="27800.00" id="2_0" nVehContrib="10" flow="180.00" occupancy="2.98" speed="9.00" harmonicMeanSpeed="8.38" length="5.00" nVehEntered="10"/>
    <interval begin="27800.00" end="28000.00" id="2_0" nVehContrib="12" flow="216.00" occupancy="3.74" speed="8.97" harmonicMeanSpeed="8.02" length="5.00" nVehEntered="12"/>
    <interval begin="28000.00" end="28200.00" id="2_0" nVehContrib="0" flow="0.00" occupancy="0.00" speed="-1.00" harmonicMeanSpeed="-1.00" length="-1.00" nVehEntered="0"/>
    <interval begin="28200.00" end="28400.00" id="2_0" nVehContrib="11" flow="198.00" occupancy="4.02" speed="8.24" harmonicMeanSpeed="6.83" length="5.00" nVehEntered="11"/>
    <interval begin="28400.00" end="28600.00" id="2_0" nVehContrib="12" flow="216.00" occupancy="4.93" speed="6.91" harmonicMeanSpeed="6.09" length="5.00" nVehEntered="12"/>
    <interval begin="28600.00" end="28800.00" id="2_0" nVehContrib="0" flow="0.00" occupancy="0.00" speed="-1.00" harmonicMeanSpeed="-1.00" length="-1.00" nVehEntered="0"/>
    <interval begin="28800.00" end="29000.00" id="2_0" nVehContrib="18" flow="324.00" occupancy="6.85" speed="7.55" harmonicMeanSpeed="6.57" length="5.00" nVehEntered="18"/>
    <interval begin="29000.00" end="29200.00" id="2_0" nVehContrib="7" flow="126.00" occupancy="2.01" speed="9.67" harmonicMeanSpeed="8.69" length="5.00" nVehEntered="7"/>
    <interval begin="29200.00" end="29400.00" id="2_0" nVehContrib="0" flow="0.00" occupancy="0.00" speed="-1.00" harmonicMeanSpeed="-1.00" length="-1.00" nVehEntered="0"/>
    <interval begin="29400.00" end="29600.00" id="2_0" nVehContrib="14" flow="252.00" occupancy="20.53" speed="6.79" harmonicMeanSpeed="1.71" length="5.00" nVehEntered="14"/>
    <interval begin="29600.00" end="29800.00" id="2_0" nVehContrib="17" flow="306.00" occupancy="6.53" speed="7.54" harmonicMeanSpeed="6.51" length="5.00" nVehEntered="17"/>
    <interval begin="29800.00" end="30000.00" id="2_0" nVehContrib="0" flow="0.00" occupancy="0.00" speed="-1.00" harmonicMeanSpeed="-1.00" length="-1.00" nVehEntered="0"/>
    <interval begin="30000.00" end="30200.00" id="2_0" nVehContrib="17" flow="306.00" occupancy="7.02" speed="7.55" harmonicMeanSpeed="6.05" length="5.00" nVehEntered="17"/>
    <interval begin="30200.00" end="30400.00" id="2_0" nVehContrib="19" flow="342.00" occupancy="8.76" speed="6.04" harmonicMeanSpeed="5.42" length="5.00" nVehEntered="19"/>
    <interval begin="30400.00" end="30600.00" id="2_0" nVehContrib="0" flow="0.00" occupancy="0.00" speed="-1.00" harmonicMeanSpeed="-1.00" length="-1.00" nVehEntered="0"/>
    <interval begin="30600.00" end="30800.00" id="2_0" nVehContrib="25" flow="450.00" occupancy="11.52" speed="5.98" harmonicMeanSpeed="5.43" length="5.00" nVehEntered="25"/>
    <interval begin="30800.00" end="31000.00" id="2_0" nVehContrib="13" flow="234.00" occupancy="14.93" speed="6.19" harmonicMeanSpeed="5.09" length="5.00" nVehEntered="14"/>
    <interval begin="31000.00" end="31200.00" id="2_0" nVehContrib="3" flow="54.00" occupancy="11.58" speed="2.94" harmonicMeanSpeed="0.37" length="5.00" nVehEntered="2"/>
    <interval begin="31200.00" end="31400.00" id="2_0" nVehContrib="16" flow="288.00" occupancy="5.31" speed="8.51" harmonicMeanSpeed="7.54" length="5.00" nVehEntered="16"/>
    <interval begin="31400.00" end="31600.00" id="2_0" nVehContrib="13" flow="234.00" occupancy="5.82" speed="6.24" harmonicMeanSpeed="5.58" length="5.00" nVehEntered="13"/>
    <interval begin="31600.00" end="31800.00" id="2_0" nVehContrib="0" flow="0.00" occupancy="0.00" speed="-1.00" harmonicMeanSpeed="-1.00" length="-1.00" nVehEntered="0"/>
    <interval begin="31800.00" end="32000.00" id="2_0" nVehContrib="13" flow="234.00" occupancy="4.10" speed="8.50" harmonicMeanSpeed="7.93" length="5.00" nVehEntered="13"/>
    <interval begin="32000.00" end="32200.00" id="2_0" nVehContrib="16" flow="288.00" occupancy="6.50" speed="6.74" harmonicMeanSpeed="6.15" length="5.00" nVehEntered="16"/>
    <interval begin="32200.00" end="32400.00" id="2_0" nVehContrib="0" flow="0.00" occupancy="0.00" speed="-1.00" harmonicMeanSpeed="-1.00" length="-1.00" nVehEntered="0"/>
    <interval begin="32400.00" end="32600.00" id="2_0" nVehContrib="27" flow="486.00" occupancy="28.73" speed="5.74" harmonicMeanSpeed="2.35" length="5.00" nVehEntered="27"/>
    <interval begin="32600.00" end="32800.00" id="2_0" nVehContrib="13" flow="234.00" occupancy="16.64" speed="6.32" harmonicMeanSpeed="5.43" length="5.00" nVehEntered="14"/>
    <interval begin="32800.00" end="33000.00" id="2_0" nVehContrib="16" flow="288.00" occupancy="18.99" speed="4.68" harmonicMeanSpeed="1.35" length="5.00" nVehEntered="15"/>
    <interval begin="33000.00" end="33200.00" id="2_0" nVehContrib="22" flow="396.00" occupancy="53.87" speed="5.71" harmonicMeanSpeed="1.41" length="5.00" nVehEntered="23"/>