<?xml version="1.0" encoding="UTF-8"?>

<!-- generated on 2022-10-27 13:57:18 by Eclipse SUMO GUI Version 1.12.0
<configuration xmlns:xsi="http://www.w3.org/2001/XMLSchema-instance" xsi:noNamespaceSchemaLocation="http://sumo.dlr.de/xsd/sumoConfiguration.xsd">

    <input>
        <net-file value="C:\Users\Burak\Desktop\mosas-projesi\QL_Tek_serit_Kilis_7902_Mosas_Verisi\mosas_kilis_7902_delay_based.net.xml"/>
        <route-files value="C:\Users\Burak\Desktop\mosas-projesi\QL_Tek_serit_Kilis_7902_Mosas_Verisi\episode_routes.rou.xml"/>
        <additional-files value="C:\Users\Burak\Desktop\mosas-projesi\QL_Tek_serit_Kilis_7902_Mosas_Verisi\mosas_kilis_7902.det.xml"/>
    </input>

    <output>
        <tripinfo-output value="C:\Users\Burak\Desktop\mosas-projesi\QL_Tek_serit_Kilis_7902_Mosas_Verisi\my_intersection.trips.xml"/>
    </output>

    <time>
        <begin value="0"/>
        <end value="60000"/>
    </time>

    <report>
        <verbose value="true"/>
        <log value="C:\Users\Burak\Desktop\mosas-projesi\QL_Tek_serit_Kilis_7902_Mosas_Verisi\my_out.xml"/>
        <no-step-log value="true"/>
    </report>

</configuration>
-->

<detector xmlns:xsi="http://www.w3.org/2001/XMLSchema-instance" xsi:noNamespaceSchemaLocation="http://sumo.dlr.de/xsd/det_e1_file.xsd">
    <interval begin="0.00" end="200.00" id="1_0" nVehContrib="20" flow="360.00" occupancy="7.08" speed="7.97" harmonicMeanSpeed="7.06" length="5.00" nVehEntered="20"/>
    <interval begin="200.00" end="400.00" id="1_0" nVehContrib="13" flow="234.00" occupancy="4.59" speed="8.74" harmonicMeanSpeed="7.08" length="5.00" nVehEntered="13"/>
    <interval begin="400.00" end="600.00" id="1_0" nVehContrib="0" flow="0.00" occupancy="0.00" speed="-1.00" harmonicMeanSpeed="-1.00" length="-1.00" nVehEntered="0"/>
    <interval begin="600.00" end="800.00" id="1_0" nVehContrib="17" flow="306.00" occupancy="9.52" speed="5.90" harmonicMeanSpeed="4.47" length="5.00" nVehEntered="17"/>
    <interval begin="800.00" end="1000.00" id="1_0" nVehContrib="14" flow="252.00" occupancy="5.51" speed="7.04" harmonicMeanSpeed="6.35" length="5.00" nVehEntered="14"/>
    <interval begin="1000.00" end="1200.00" id="1_0" nVehContrib="0" flow="0.00" occupancy="0.00" speed="-1.00" harmonicMeanSpeed="-1.00" length="-1.00" nVehEntered="0"/>
    <interval begin="1200.00" end="1400.00" id="1_0" nVehContrib="19" flow="342.00" occupancy="8.04" speed="6.84" harmonicMeanSpeed="5.91" length="5.00" nVehEntered="19"/>
    <interval begin="1400.00" end="1600.00" id="1_0" nVehContrib="3" flow="54.00" occupancy="0.53" speed="14.26" harmonicMeanSpeed="14.08" length="5.00" nVehEntered="3"/>
    <interval begin="1600.00" end="1800.00" id="1_0" nVehContrib="0" flow="0.00" occupancy="0.00" speed="-1.00" harmonicMeanSpeed="-1.00" length="-1.00" nVehEntered="0"/>
    <interval begin="1800.00" end="2000.00" id="1_0" nVehContrib="9" flow="162.00" occupancy="3.51" speed="7.86" harmonicMeanSpeed="6.41" length="5.00" nVehEntered="9"/>
    <interval begin="2000.00" end="2200.00" id="1_0" nVehContrib="15" flow="270.00" occupancy="6.20" speed="6.83" harmonicMeanSpeed="6.05" length="5.00" nVehEntered="15"/>
    <interval begin="2200.00" end="2400.00" id="1_0" nVehContrib="0" flow="0.00" occupancy="0.00" speed="-1.00" harmonicMeanSpeed="-1.00" length="-1.00" nVehEntered="0"/>
    <interval begin="2400.00" end="2600.00" id="1_0" nVehContrib="16" flow="288.00" occupancy="27.83" speed="4.96" harmonicMeanSpeed="1.44" length="5.00" nVehEntered="16"/>
    <interval begin="2600.00" end="2800.00" id="1_0" nVehContrib="14" flow="252.00" occupancy="5.30" speed="7.69" harmonicMeanSpeed="6.60" length="5.00" nVehEntered="14"/>
    <interval begin="2800.00" end="3000.00" id="1_0" nVehContrib="0" flow="0.00" occupancy="0.00" speed="-1.00" harmonicMeanSpeed="-1.00" length="-1.00" nVehEntered="0"/>
    <interval begin="3000.00" end="3200.00" id="1_0" nVehContrib="15" flow="270.00" occupancy="23.01" speed="7.32" harmonicMeanSpeed="1.63" length="5.00" nVehEntered="15"/>
    <interval begin="3200.00" end="3400.00" id="1_0" nVehContrib="19" flow="342.00" occupancy="12.84" speed="6.65" harmonicMeanSpeed="3.70" length="5.00" nVehEntered="19"/>
    <interval begin="3400.00" end="3600.00" id="1_0" nVehContrib="0" flow="0.00" occupancy="0.00" speed="-1.00" harmonicMeanSpeed="-1.00" length="-1.00" nVehEntered="0"/>
    <interval begin="3600.00" end="3800.00" id="1_0" nVehContrib="20" flow="360.00" occupancy="22.41" speed="5.23" harmonicMeanSpeed="2.23" length="5.00" nVehEntered="20"/>
    <interval begin="3800.00" end="4000.00" id="1_0" nVehContrib="7" flow="126.00" occupancy="1.57" speed="11.68" harmonicMeanSpeed="11.15" length="5.00" nVehEntered="7"/>
    <interval begin="4000.00" end="4200.00" id="1_0" nVehContrib="0" flow="0.00" occupancy="0.00" speed="-1.00" harmonicMeanSpeed="-1.00" length="-1.00" nVehEntered="0"/>
    <interval begin="4200.00" end="4400.00" id="1_0" nVehContrib="17" flow="306.00" occupancy="9.59" speed="6.57" harmonicMeanSpeed="4.43" length="5.00" nVehEntered="17"/>
    <interval begin="4400.00" end="4600.00" id="1_0" nVehContrib="11" flow="198.00" occupancy="3.67" speed="8.32" harmonicMeanSpeed="7.50" length="5.00" nVehEntered="11"/>
    <interval begin="4600.00" end="4800.00" id="1_0" nVehContrib="7" flow="126.00" occupancy="3.69" speed="4.99" harmonicMeanSpeed="4.74" length="5.00" nVehEntered="7"/>
    <interval begin="4800.00" end="5000.00" id="1_0" nVehContrib="16" flow="288.00" occupancy="9.37" speed="6.28" harmonicMeanSpeed="4.27" length="5.00" nVehEntered="16"/>
    <interval begin="5000.00" end="5200.00" id="1_0" nVehContrib="9" flow="162.00" occupancy="3.10" speed="7.85" harmonicMeanSpeed="7.25" length="5.00" nVehEntered="9"/>
    <interval begin="5200.00" end="5400.00" id="1_0" nVehContrib="0" flow="0.00" occupancy="0.00" speed="-1.00" harmonicMeanSpeed="-1.00" length="-1.00" nVehEntered="0"/>
    <interval begin="5400.00" end="5600.00" id="1_0" nVehContrib="19" flow="342.00" occupancy="8.35" speed="6.54" harmonicMeanSpeed="5.69" length="5.00" nVehEntered="19"/>
    <interval begin="5600.00" end="5800.00" id="1_0" nVehContrib="18" flow="324.00" occupancy="13.82" speed="5.65" harmonicMeanSpeed="3.26" length="5.00" nVehEntered="18"/>
    <interval begin="5800.00" end="6000.00" id="1_0" nVehContrib="0" flow="0.00" occupancy="0.00" speed="-1.00" harmonicMeanSpeed="-1.00" length="-1.00" nVehEntered="0"/>
    <interval begin="6000.00" end="6200.00" id="1_0" nVehContrib="18" flow="324.00" occupancy="8.38" speed="6.26" harmonicMeanSpeed="5.37" length="5.00" nVehEntered="18"/>
    <interval begin="6200.00" end="6400.00" id="1_0" nVehContrib="11" flow="198.00" occupancy="4.05" speed="8.11" harmonicMeanSpeed="6.79" length="5.00" nVehEntered="11"/>
    <interval begin="6400.00" end="6600.00" id="1_0" nVehContrib="0" flow="0.00" occupancy="0.00" speed="-1.00" harmonicMeanSpeed="-1.00" length="-1.00" nVehEntered="0"/>
    <interval begin="6600.00" end="6800.00" id="1_0" nVehContrib="13" flow="234.00" occupancy="4.57" speed="8.02" harmonicMeanSpeed="7.12" length="5.00" nVehEntered="13"/>
    <interval begin="6800.00" end="7000.00" id="1_0" nVehContrib="17" flow="306.00" occupancy="17.87" speed="5.81" harmonicMeanSpeed="2.38" length="5.00" nVehEntered="17"/>
    <interval begin="7000.00" end="7200.00" id="1_0" nVehContrib="0" flow="0.00" occupancy="0.00" speed="-1.00" harmonicMeanSpeed="-1.00" length="-1.00" nVehEntered="0"/>
    <interval begin="7200.00" end="7400.00" id="1_0" nVehContrib="10" flow="180.00" occupancy="3.54" speed="7.98" harmonicMeanSpeed="7.05" length="5.00" nVehEntered="10"/>
    <interval begin="7400.00" end="7600.00" id="1_0" nVehContrib="11" flow="198.00" occupancy="5.04" speed="5.91" harmonicMeanSpeed="5.46" length="5.00" nVehEntered="11"/>
    <interval begin="7600.00" end="7800.00" id="1_0" nVehContrib="0" flow="0.00" occupancy="0.00" speed="-1.00" harmonicMeanSpeed="-1.00" length="-1.00" nVehEntered="0"/>
    <interval begin="7800.00" end="8000.00" id="1_0" nVehContrib="13" flow="234.00" occupancy="13.04" speed="5.23" harmonicMeanSpeed="2.49" length="5.00" nVehEntered="13"/>
    <interval begin="8000.00" end="8200.00" id="1_0" nVehContrib="11" flow="198.00" occupancy="3.84" speed="8.43" harmonicMeanSpeed="7.15" length="5.00" nVehEntered="11"/>
    <interval begin="8200.00" end="8400.00" id="1_0" nVehContrib="0" flow="0.00" occupancy="0.00" speed="-1.00" harmonicMeanSpeed="-1.00" length="-1.00" nVehEntered="0"/>
    <interval begin="8400.00" end="8600.00" id="1_0" nVehContrib="14" flow="252.00" occupancy="4.66" speed="8.98" harmonicMeanSpeed="7.51" length="5.00" nVehEntered="14"/>
    <interval begin="8600.00" end="8800.00" id="1_0" nVehContrib="5" flow="90.00" occupancy="1.14" speed="12.02" harmonicMeanSpeed="11.00" length="5.00" nVehEntered="5"/>
    <interval begin="8800.00" end="9000.00" id="1_0" nVehContrib="0" flow="0.00" occupancy="0.00" speed="-1.00" harmonicMeanSpeed="-1.00" length="-1.00" nVehEntered="0"/>
    <interval begin="9000.00" end="9200.00" id="1_0" nVehContrib="15" flow="270.00" occupancy="6.91" speed="7.13" harmonicMeanSpeed="5.42" length="5.00" nVehEntered="15"/>
    <interval begin="9200.00" end="9400.00" id="1_0" nVehContrib="13" flow="234.00" occupancy="5.38" speed="6.70" harmonicMeanSpeed="6.04" length="5.00" nVehEntered="13"/>
    <interval begin="9400.00" end="9600.00" id="1_0" nVehContrib="0" flow="0.00" occupancy="0.00" speed="-1.00" harmonicMeanSpeed="-1.00" length="-1.00" nVehEntered="0"/>
    <interval begin="9600.00" end="9800.00" id="1_0" nVehContrib="10" flow="180.00" occupancy="3.76" speed="7.35" harmonicMeanSpeed="6.65" length="5.00" nVehEntered="10"/>
    <interval begin="9800.00" end="10000.00" id="1_0" nVehContrib="15" flow="270.00" occupancy="9.61" speed="7.55" harmonicMeanSpeed="6.04" length="5.00" nVehEntered="16"/>
    <interval begin="10000.00" end="10200.00" id="1_0" nVehContrib="5" flow="90.00" occupancy="2.64" speed="3.90" harmonicMeanSpeed="2.07" length="5.00" nVehEntered="4"/>
    <interval begin="10200.00" end="10400.00" id="1_0" nVehContrib="15" flow="270.00" occupancy="19.72" speed="5.47" harmonicMeanSpeed="1.90" length="5.00" nVehEntered="15"/>
    <interval begin="10400.00" end="10600.00" id="1_0" nVehContrib="11" flow="198.00" occupancy="4.47" speed="6.58" harmonicMeanSpeed="6.15" length="5.00" nVehEntered="11"/>
    <interval begin="10600.00" end="10800.00" id="1_0" nVehContrib="0" flow="0.00" occupancy="0.00" speed="-1.00" harmonicMeanSpeed="-1.00" length="-1.00" nVehEntered="0"/>
    <interval begin="10800.00" end="11000.00" id="1_0" nVehContrib="14" flow="252.00" occupancy="8.98" speed="6.29" harmonicMeanSpeed="3.90" length="5.00" nVehEntered="14"/>
    <interval begin="11000.00" end="11200.00" id="1_0" nVehContrib="14" flow="252.00" occupancy="4.70" speed="8.57" harmonicMeanSpeed="7.45" length="5.00" nVehEntered="14"/>
    <interval begin="11200.00" end="11400.00" id="1_0" nVehContrib="0" flow="0.00" occupancy="0.00" speed="-1.00" harmonicMeanSpeed="-1.00" length="-1.00" nVehEntered="0"/>
    <interval begin="11400.00" end="11600.00" id="1_0" nVehContrib="11" flow="198.00" occupancy="4.30" speed="7.11" harmonicMeanSpeed="6.40" length="5.00" nVehEntered="11"/>
    <interval begin="11600.00" end="11800.00" id="1_0" nVehContrib="20" flow="360.00" occupancy="9.05" speed="6.12" harmonicMeanSpeed="5.52" length="5.00" nVehEntered="20"/>
    <interval begin="11800.00" end="12000.00" id="1_0" nVehContrib="0" flow="0.00" occupancy="0.00" speed="-1.00" harmonicMeanSpeed="-1.00" length="-1.00" nVehEntered="0"/>
    <interval begin="12000.00" end="12200.00" id="1_0" nVehContrib="12" flow="216.00" occupancy="5.28" speed="6.85" harmonicMeanSpeed="5.68" length="5.00" nVehEntered="12"/>
    <interval begin="12200.00" end="12400.00" id="1_0" nVehContrib="19" flow="342.00" occupancy="12.82" speed="5.71" harmonicMeanSpeed="3.70" length="5.00" nVehEntered="19"/>
    <interval begin="12400.00" end="12600.00" id="1_0" nVehContrib="0" flow="0.00" occupancy="0.00" speed="-1.00" harmonicMeanSpeed="-1.00" length="-1.00" nVehEntered="0"/>
    <interval begin="12600.00" end="12800.00" id="1_0" nVehContrib="22" flow="396.00" occupancy="21.74" speed="5.65" harmonicMeanSpeed="2.53" length="5.00" nVehEntered="22"/>
    <interval begin="12800.00" end="13000.00" id="1_0" nVehContrib="16" flow="288.00" occupancy="26.11" speed="6.88" harmonicMeanSpeed="1.53" length="5.00" nVehEntered="16"/>
    <interval begin="13000.00" end="13200.00" id="1_0" nVehContrib="0" flow="0.00" occupancy="0.00" speed="-1.00" harmonicMeanSpeed="-1.00" length="-1.00" nVehEntered="0"/>
    <interval begin="13200.00" end="13400.00" id="1_0" nVehContrib="12" flow="216.00" occupancy="4.40" speed="7.73" harmonicMeanSpeed="6.82" length="5.00" nVehEntered="12"/>
    <interval begin="13400.00" end="13600.00" id="1_0" nVehContrib="18" flow="324.00" occupancy="6.31" speed="7.94" harmonicMeanSpeed="7.13" length="5.00" nVehEntered="18"/>
    <interval begin="13600.00" end="13800.00" id="1_0" nVehContrib="0" flow="0.00" occupancy="0.00" speed="-1.00" harmonicMeanSpeed="-1.00" length="-1.00" nVehEntered="0"/>
    <interval begin="13800.00" end="14000.00" id="1_0" nVehContrib="18" flow="324.00" occupancy="7.70" speed="6.69" harmonicMeanSpeed="5.85" length="5.00" nVehEntered="18"/>
    <interval begin="14000.00" end="14200.00" id="1_0" nVehContrib="10" flow="180.00" occupancy="3.91" speed="7.22" harmonicMeanSpeed="6.40" length="5.00" nVehEntered="10"/>
    <interval begin="14200.00" end="14400.00" id="1_0" nVehContrib="0" flow="0.00" occupancy="0.00" speed="-1.00" harmonicMeanSpeed="-1.00" length="-1.00" nVehEntered="0"/>
    <interval begin="14400.00" end="14600.00" id="1_0" nVehContrib="16" flow="288.00" occupancy="7.15" speed="6.81" harmonicMeanSpeed="5.60" length="5.00" nVehEntered="16"/>
    <interval begin="14600.00" end="14800.00" id="1_0" nVehContrib="12" flow="216.00" occupancy="6.06" speed="7.71" harmonicMeanSpeed="6.60" length="5.00" nVehEntered="13"/>
    <interval begin="14800.00" end="15000.00" id="1_0" nVehContrib="4" flow="72.00" occupancy="8.25" speed="2.94" harmonicMeanSpeed="1.02" length="5.00" nVehEntered="3"/>
    <interval begin="15000.00" end="15200.00" id="1_0" nVehContrib="16" flow="288.00" occupancy="7.18" speed="6.27" harmonicMeanSpeed="5.57" length="5.00" nVehEntered="16"/>
    <interval begin="15200.00" end="15400.00" id="1_0" nVehContrib="15" flow="270.00" occupancy="6.46" speed="6.82" harmonicMeanSpeed="5.81" length="5.00" nVehEntered="15"/>
    <interval begin="15400.00" end="15600.00" id="1_0" nVehContrib="0" flow="0.00" occupancy="0.00" speed="-1.00" harmonicMeanSpeed="-1.00" length="-1.00" nVehEntered="0"/>
    <interval begin="15600.00" end="15800.00" id="1_0" nVehContrib="17" flow="306.00" occupancy="6.25" speed="8.05" harmonicMeanSpeed="6.80" length="5.00" nVehEntered="17"/>
    <interval begin="15800.00" end="16000.00" id="1_0" nVehContrib="15" flow="270.00" occupancy="6.35" speed="6.47" harmonicMeanSpeed="5.90" length="5.00" nVehEntered="15"/>
    <interval begin="16000.00" end="16200.00" id="1_0" nVehContrib="0" flow="0.00" occupancy="0.00" speed="-1.00" harmonicMeanSpeed="-1.00" length="-1.00" nVehEntered="0"/>
    <interval begin="16200.00" end="16400.00" id="1_0" nVehContrib="19" flow="342.00" occupancy="8.76" speed="5.74" harmonicMeanSpeed="5.42" length="5.00" nVehEntered="19"/>
    <interval begin="16400.00" end="16600.00" id="1_0" nVehContrib="9" flow="162.00" occupancy="3.60" speed="7.19" harmonicMeanSpeed="6.26" length="5.00" nVehEntered="9"/>
    <interval begin="16600.00" end="16800.00" id="1_0" nVehContrib="0" flow="0.00" occupancy="0.00" speed="-1.00" harmonicMeanSpeed="-1.00" length="-1.00" nVehEntered="0"/>
    <interval begin="16800.00" end="17000.00" id="1_0" nVehContrib="19" flow="342.00" occupancy="7.59" speed="7.37" harmonicMeanSpeed="6.25" length="5.00" nVehEntered="19"/>
    <interval begin="17000.00" end="17200.00" id="1_0" nVehContrib="11" flow="198.00" occupancy="4.27" speed="7.10" harmonicMeanSpeed="6.45" length="5.00" nVehEntered="11"/>
    <interval begin="17200.00" end="17400.00" id="1_0" nVehContrib="0" flow="0.00" occupancy="0.00" speed="-1.00" harmonicMeanSpeed="-1.00" length="-1.00" nVehEntered="0"/>
    <interval begin="17400.00" end="17600.00" id="1_0" nVehContrib="9" flow="162.00" occupancy="2.76" speed="8.88" harmonicMeanSpeed="8.16" length="5.00" nVehEntered="9"/>
    <interval begin="17600.00" end="17800.00" id="1_0" nVehContrib="13" flow="234.00" occupancy="4.98" speed="7.82" harmonicMeanSpeed="6.53" length="5.00" nVehEntered="13"/>
    <interval begin="17800.00" end="18000.00" id="1_0" nVehContrib="0" flow="0.00" occupancy="0.00" speed="-1.00" harmonicMeanSpeed="-1.00" length="-1.00" nVehEntered="0"/>
    <interval begin="18000.00" end="18200.00" id="1_0" nVehContrib="16" flow="288.00" occupancy="7.81" speed="6.33" harmonicMeanSpeed="5.12" length="5.00" nVehEntered="16"/>
    <interval begin="18200.00" end="18400.00" id="1_0" nVehContrib="14" flow="252.00" occupancy="6.84" speed="5.82" harmonicMeanSpeed="5.12" length="5.00" nVehEntered="14"/>
    <interval begin="18400.00" end="18600.00" id="1_0" nVehContrib="2" flow="36.00" occupancy="17.30" speed="2.06" harmonicMeanSpeed="0.29" length="5.00" nVehEntered="2"/>
    <interval begin="18600.00" end="18800.00" id="1_0" nVehContrib="10" flow="180.00" occupancy="2.78" speed="10.26" harmonicMeanSpeed="9.00" length="5.00" nVehEntered="10"/>
    <interval begin="18800.00" end="19000.00" id="1_0" nVehContrib="13" flow="234.00" occupancy="5.00" speed="6.98" harmonicMeanSpeed="6.50" length="5.00" nVehEntered="13"/>
    <interval begin="19000.00" end="19200.00" id="1_0" nVehContrib="0" flow="0.00" occupancy="0.00" speed="-1.00" harmonicMeanSpeed="-1.00" length="-1.00" nVehEntered="0"/>
    <interval begin="19200.00" end="19400.00" id="1_0" nVehContrib="21" flow="378.00" occupancy="8.95" speed="6.20" harmonicMeanSpeed="5.87" length="5.00" nVehEntered="21"/>
    <interval begin="19400.00" end="19600.00" id="1_0" nVehContrib="19" flow="342.00" occupancy="8.12" speed="6.57" harmonicMeanSpeed="5.85" length="5.00" nVehEntered="19"/>
    <interval begin="19600.00" end="19800.00" id="1_0" nVehContrib="0" flow="0.00" occupancy="0.00" speed="-1.00" harmonicMeanSpeed="-1.00" length="-1.00" nVehEntered="0"/>
    <interval begin="19800.00" end="20000.00" id="1_0" nVehContrib="20" flow="360.00" occupancy="12.00" speed="6.49" harmonicMeanSpeed="4.17" length="5.00" nVehEntered="20"/>
    <interval begin="20000.00" end="20200.00" id="1_0" nVehContrib="11" flow="198.00" occupancy="4.41" speed="6.95" harmonicMeanSpeed="6.23" length="5.00" nVehEntered="11"/>
    <interval begin="20200.00" end="20400.00" id="1_0" nVehContrib="0" flow="0.00" occupancy="0.00" speed="-1.00" harmonicMeanSpeed="-1.00" length="-1.00" nVehEntered="0"/>
    <interval begin="20400.00" end="20600.00" id="1_0" nVehContrib="20" flow="360.00" occupancy="9.78" speed="5.85" harmonicMeanSpeed="5.11" length="5.00" nVehEntered="20"/>
    <interval begin="20600.00" end="20800.00" id="1_0" nVehContrib="13" flow="234.00" occupancy="15.25" speed="5.53" harmonicMeanSpeed="4.99" length="5.00" nVehEntered="14"/>
    <interval begin="20800.00" end="21000.00" id="1_0" nVehContrib="3" flow="54.00" occupancy="1.96" speed="2.79" harmonicMeanSpeed="0.70" length="5.00" nVehEntered="2"/>
    <interval begin="21000.00" end="21200.00" id="1_0" nVehContrib="21" flow="378.00" occupancy="8.92" speed="6.62" harmonicMeanSpeed="5.88" length="5.00" nVehEntered="21"/>
    <interval begin="21200.00" end="21400.00" id="1_0" nVehContrib="12" flow="216.00" occupancy="6.19" speed="6.26" harmonicMeanSpeed="5.82" length="5.00" nVehEntered="13"/>
    <interval begin="21400.00" end="21600.00" id="1_0" nVehContrib="4" flow="72.00" occupancy="3.87" speed="3.54" harmonicMeanSpeed="2.04" length="5.00" nVehEntered="3"/>
    <interval begin="21600.00" end="21800.00" id="1_0" nVehContrib="13" flow="234.00" occupancy="4.96" speed="7.79" harmonicMeanSpeed="6.55" length="5.00" nVehEntered="13"/>
    <interval begin="21800.00" end="22000.00" id="1_0" nVehContrib="16" flow="288.00" occupancy="14.75" speed="5.42" harmonicMeanSpeed="2.71" length="5.00" nVehEntered="16"/>
    <interval begin="22000.00" end="22200.00" id="1_0" nVehContrib="1" flow="18.00" occupancy="0.55" speed="4.55" harmonicMeanSpeed="4.55" length="5.00" nVehEntered="1"/>
    <interval begin="22200.00" end="22400.00" id="1_0" nVehContrib="19" flow="342.00" occupancy="6.89" speed="7.76" harmonicMeanSpeed="6.90" length="5.00" nVehEntered="19"/>
    <interval begin="22400.00" end="22600.00" id="1_0" nVehContrib="27" flow="486.00" occupancy="11.69" speed="6.26" harmonicMeanSpeed="5.77" length="5.00" nVehEntered="27"/>
    <interval begin="22600.00" end="22800.00" id="1_0" nVehContrib="0" flow="0.00" occupancy="0.00" speed="-1.00" harmonicMeanSpeed="-1.00" length="-1.00" nVehEntered="0"/>
    <interval begin="22800.00" end="23000.00" id="1_0" nVehContrib="12" flow="216.00" occupancy="5.56" speed="5.97" harmonicMeanSpeed="5.39" length="5.00" nVehEntered="12"/>
    <interval begin="23000.00" end="23200.00" id="1_0" nVehContrib="22" flow="396.00" occupancy="10.36" speed="5.66" harmonicMeanSpeed="5.31" length="5.00" nVehEntered="22"/>
    <interval begin="23200.00" end="23400.00" id="1_0" nVehContrib="0" flow="0.00" occupancy="0.00" speed="-1.00" harmonicMeanSpeed="-1.00" length="-1.00" nVehEntered="0"/>
    <interval begin="23400.00" end="23600.00" id="1_0" nVehContrib="12" flow="216.00" occupancy="3.72" speed="9.50" harmonicMeanSpeed="8.06" length="5.00" nVehEntered="12"/>
    <interval begin="23600.00" end="23800.00" id="1_0" nVehContrib="18" flow="324.00" occupancy="8.75" speed="6.92" harmonicMeanSpeed="5.14" length="5.00" nVehEntered="18"/>
    <interval begin="23800.00" end="24000.00" id="1_0" nVehContrib="0" flow="0.00" occupancy="0.00" speed="-1.00" harmonicMeanSpeed="-1.00" length="-1.00" nVehEntered="0"/>
    <interval begin="24000.00" end="24200.00" id="1_0" nVehContrib="16" flow="288.00" occupancy="20.46" speed="5.13" harmonicMeanSpeed="1.96" length="5.00" nVehEntered="16"/>
    <interval begin="24200.00" end="24400.00" id="1_0" nVehContrib="17" flow="306.00" occupancy="12.34" speed="7.14" harmonicMeanSpeed="5.68" length="5.00" nVehEntered="18"/>
    <interval begin="24400.00" end="24600.00" id="1_0" nVehContrib="1" flow="18.00" occupancy="11.28" speed="0.15" harmonicMeanSpeed="0.15" length="5.00" nVehEntered="0"/>
    <interval begin="24600.00" end="24800.00" id="1_0" nVehContrib="26" flow="468.00" occupancy="34.55" speed="6.10" harmonicMeanSpeed="1.88" length="5.00" nVehEntered="26"/>
    <interval begin="24800.00" end="25000.00" id="1_0" nVehContrib="20" flow="360.00" occupancy="8.58" speed="6.32" harmonicMeanSpeed="5.83" length="5.00" nVehEntered="20"/>
    <interval begin="25000.00" end="25200.00" id="1_0" nVehContrib="0" flow="0.00" occupancy="0.00" speed="-1.00" harmonicMeanSpeed="-1.00" length="-1.00" nVehEntered="0"/>
    <interval begin="25200.00" end="25400.00" id="1_0" nVehContrib="7" flow="126.00" occupancy="3.05" speed="6.25" harmonicMeanSpeed="5.73" length="5.00" nVehEntered="7"/>
    <interval begin="25400.00" end="25600.00" id="1_0" nVehContrib="14" flow="252.00" occupancy="14.39" speed="5.62" harmonicMeanSpeed="2.48" length="5.00" nVehEntered="15"/>
    <interval begin="25600.00" end="25800.00" id="1_0" nVehContrib="1" flow="18.00" occupancy="0.18" speed="5.59" harmonicMeanSpeed="5.59" length="5.00" nVehEntered="0"/>
    <interval begin="25800.00" end="26000.00" id="1_0" nVehContrib="18" flow="324.00" occupancy="7.12" speed="7.23" harmonicMeanSpeed="6.32" length="5.00" nVehEntered="18"/>
    <interval begin="26000.00" end="26200.00" id="1_0" nVehContrib="13" flow="234.00" occupancy="5.63" speed="6.60" harmonicMeanSpeed="5.78" length="5.00" nVehEntered="13"/>
    <interval begin="26200.00" end="26400.00" id="1_0" nVehContrib="0" flow="0.00" occupancy="0.00" speed="-1.00" harmonicMeanSpeed="-1.00" length="-1.00" nVehEntered="0"/>
    <interval begin="26400.00" end="26600.00" id="1_0" nVehContrib="17" flow="306.00" occupancy="10.10" speed="6.59" harmonicMeanSpeed="4.21" length="5.00" nVehEntered="17"/>
    <interval begin="26600.00" end="26800.00" id="1_0" nVehContrib="10" flow="180.00" occupancy="3.72" speed="7.46" harmonicMeanSpeed="6.71" length="5.00" nVehEntered="10"/>
    <interval begin="26800.00" end="27000.00" id="1_0" nVehContrib="0" flow="0.00" occupancy="0.00" speed="-1.00" harmonicMeanSpeed="-1.00" length="-1.00" nVehEntered="0"/>
    <interval begin="27000.00" end="27200.00" id="1_0" nVehContrib="12" flow="216.00" occupancy="3.82" speed="8.90" harmonicMeanSpeed="7.85" length="5.00" nVehEntered="12"/>
    <interval begin="27200.00" end="27400.00" id="1_0" nVehContrib="18" flow="324.00" occupancy="17.67" speed="5.25" harmonicMeanSpeed="2.55" length="5.00" nVehEntered="18"/>
    <interval begin="27400.00" end="27600.00" id="1_0" nVehContrib="0" flow="0.00" occupancy="0.00" speed="-1.00" harmonicMeanSpeed="-1.00" length="-1.00" nVehEntered="0"/>
    <interval begin="27600.00" end="27800.00" id="1_0" nVehContrib="21" flow="378.00" occupancy="12.97" speed="6.06" harmonicMeanSpeed="4.05" length="5.00" nVehEntered="21"/>
    <interval begin="27800.00" end="28000.00" id="1_0" nVehContrib="10" flow="180.00" occupancy="4.20" speed="6.98" harmonicMeanSpeed="5.96" length="5.00" nVehEntered="10"/>
    <interval begin="28000.00" end="28200.00" id="1_0" nVehContrib="0" flow="0.00" occupancy="0.00" speed="-1.00" harmonicMeanSpeed="-1.00" length="-1.00" nVehEntered="0"/>
    <interval begin="28200.00" end="28400.00" id="1_0" nVehContrib="25" flow="450.00" occupancy="11.65" speed="5.84" harmonicMeanSpeed="5.36" length="5.00" nVehEntered="25"/>
    <interval begin="28400.00" end="28600.00" id="1_0" nVehContrib="23" flow="414.00" occupancy="9.26" speed="6.62" harmonicMeanSpeed="6.21" length="5.00" nVehEntered="23"/>
    <interval begin="28600.00" end="28800.00" id="1_0" nVehContrib="0" flow="0.00" occupancy="0.00" speed="-1.00" harmonicMeanSpeed="-1.00" length="-1.00" nVehEntered="0"/>
    <interval begin="28800.00" end="29000.00" id="1_0" nVehContrib="12" flow="216.00" occupancy="3.88" speed="8.85" harmonicMeanSpeed="7.74" length="5.00" nVehEntered="12"/>
    <interval begin="29000.00" end="29200.00" id="1_0" nVehContrib="16" flow="288.00" occupancy="6.51" speed="6.84" harmonicMeanSpeed="6.14" length="5.00" nVehEntered="16"/>
    <interval begin="29200.00" end="29400.00" id="1_0" nVehContrib="0" flow="0.00" occupancy="0.00" speed="-1.00" harmonicMeanSpeed="-1.00" length="-1.00" nVehEntered="0"/>
    <interval begin="29400.00" end="29600.00" id="1_0" nVehContrib="19" flow="342.00" occupancy="7.30" speed="7.52" harmonicMeanSpeed="6.51" length="5.00" nVehEntered="19"/>
    <interval begin="29600.00" end="29800.00" id="1_0" nVehContrib="14" flow="252.00" occupancy="35.59" speed="6.03" harmonicMeanSpeed="1.00" length="5.00" nVehEntered="15"/>
    <interval begin="29800.00" end="30000.00" id="1_0" nVehContrib="8" flow="144.00" occupancy="4.22" speed="4.41" harmonicMeanSpeed="4.30" length="5.00" nVehEntered="7"/>
    <interval begin="30000.00" end="30200.00" id="1_0" nVehContrib="22" flow="396.00" occupancy="8.77" speed="7.11" harmonicMeanSpeed="6.27" length="5.00" nVehEntered="22"/>
    <interval begin="30200.00" end="30400.00" id="1_0" nVehContrib="11" flow="198.00" occupancy="3.78" speed="8.89" harmonicMeanSpeed="7.27" length="5.00" nVehEntered="11"/>
    <interval begin="30400.00" end="30600.00" id="1_0" nVehContrib="0" flow="0.00" occupancy="0.00" speed="-1.00" harmonicMeanSpeed="-1.00" length="-1.00" nVehEntered="0"/>
    <interval begin="30600.00" end="30800.00" id="1_0" nVehContrib="14" flow="252.00" occupancy="29.92" speed="7.18" harmonicMeanSpeed="1.17" length="5.00" nVehEntered="14"/>
    <interval begin="30800.00" end="31000.00" id="1_0" nVehContrib="13" flow="234.00" occupancy="5.57" speed="7.94" harmonicMeanSpeed="6.38" length="5.00" nVehEntered="14"/>
    <interval begin="31000.00" end="31200.00" id="1_0" nVehContrib="5" flow="90.00" occupancy="25.29" speed="2.39" harmonicMeanSpeed="0.49" length="5.00" nVehEntered="4"/>
    <interval begin="31200.00" end="31400.00" id="1_0" nVehContrib="28" flow="504.00" occupancy="32.88" speed="5.64" harmonicMeanSpeed="2.13" length="5.00" nVehEntered="28"/>
    <interval begin="31400.00" end="31600.00" id="1_0" nVehContrib="13" flow="234.00" occupancy="15.40" speed="5.45" harmonicMeanSpeed="2.21" length="5.00" nVehEntered="14"/>
    <interval begin="31600.00" end="31800.00" id="1_0" nVehContrib="16" flow="288.00" occupancy="8.93" speed="4.58" harmonicMeanSpeed="4.15" length="5.00" nVehEntered="15"/>
    <interval begin="31800.00" end="32000.00" id="1_0" nVehContrib="29" flow="522.00" occupancy="20.89" speed="5.29" harmonicMeanSpeed="3.47" length="5.00" nVehEntered="29"/>
    <interval begin="32000.00" end="32200.00" id="1_0" nVehContrib="13" flow="234.00" occupancy="16.16" speed="8.13" harmonicMeanSpeed="2.83" length="5.00" nVehEntered="14"/>
    <interval begin="32200.00" end="32400.00" id="1_0" nVehContrib="8" flow="144.00" occupancy="5.79" speed="5.33" harmonicMeanSpeed="1.91" length="5.00" nVehEntered="7"/>
    <interval begin="32400.00" end="32600.00" id="1_0" nVehContrib="25" flow="450.00" occupancy="43.18" speed="5.55" harmonicMeanSpeed="1.45" length="5.00" nVehEntered="25"/>
    <interval begin="32600.00" end="32800.00" id="1_0" nVehContrib="13" flow="234.00" occupancy="5.29" speed="7.01" harmonicMeanSpeed="6.15" length="5.00" nVehEntered="13"/>
    <interval begin="32800.00" end="33000.00" id="1_0" nVehContrib="11" flow="198.00" occupancy="45.34" speed="4.09" harmonicMeanSpeed="0.61" length="5.00" nVehEntered="11"/>