<?xml version="1.0" encoding="UTF-8"?>

<!-- generated on 2022-10-27 13:57:18 by Eclipse SUMO GUI Version 1.12.0
<configuration xmlns:xsi="http://www.w3.org/2001/XMLSchema-instance" xsi:noNamespaceSchemaLocation="http://sumo.dlr.de/xsd/sumoConfiguration.xsd">

    <input>
        <net-file value="C:\Users\Burak\Desktop\mosas-projesi\QL_Tek_serit_Kilis_7902_Mosas_Verisi\mosas_kilis_7902_delay_based.net.xml"/>
        <route-files value="C:\Users\Burak\Desktop\mosas-projesi\QL_Tek_serit_Kilis_7902_Mosas_Verisi\episode_routes.rou.xml"/>
        <additional-files value="C:\Users\Burak\Desktop\mosas-projesi\QL_Tek_serit_Kilis_7902_Mosas_Verisi\mosas_kilis_7902.det.xml"/>
    </input>

    <output>
        <tripinfo-output value="C:\Users\Burak\Desktop\mosas-projesi\QL_Tek_serit_Kilis_7902_Mosas_Verisi\my_intersection.trips.xml"/>
    </output>

    <time>
        <begin value="0"/>
        <end value="60000"/>
    </time>

    <report>
        <verbose value="true"/>
        <log value="C:\Users\Burak\Desktop\mosas-projesi\QL_Tek_serit_Kilis_7902_Mosas_Verisi\my_out.xml"/>
        <no-step-log value="true"/>
    </report>

</configuration>
-->

<tripinfos xmlns:xsi="http://www.w3.org/2001/XMLSchema-instance" xsi:noNamespaceSchemaLocation="http://sumo.dlr.de/xsd/tripinfo_file.xsd">
    <tripinfo id="0" depart="2.00" departLane="4_0_0" departPos="5.10" departSpeed="14.72" departDelay="0.00" arrival="23.00" arrivalLane="1_1_0" arrivalPos="102.05" arrivalSpeed="14.47" duration="21.00" routeLength="203.19" waitingTime="2.00" waitingCount="1" stopTime="0.00" timeLoss="6.59" rerouteNo="0" devices="tripinfo_0" vType="DEFAULT_VEHTYPE" speedFactor="1.06" vaporized=""/>
    <tripinfo id="1" depart="3.00" departLane="4_0_0" departPos="5.10" departSpeed="12.38" departDelay="1.00" arrival="27.00" arrivalLane="1_1_0" arrivalPos="102.05" arrivalSpeed="12.21" duration="24.00" routeLength="203.19" waitingTime="1.00" waitingCount="1" stopTime="0.00" timeLoss="7.20" rerouteNo="0" devices="tripinfo_1" vType="DEFAULT_VEHTYPE" speedFactor="0.94" vaporized=""/>
    <tripinfo id="2" depart="4.00" departLane="4_0_0" departPos="5.10" departSpeed="9.71" departDelay="2.00" arrival="29.00" arrivalLane="1_1_0" arrivalPos="102.05" arrivalSpeed="13.27" duration="25.00" routeLength="203.19" waitingTime="0.00" waitingCount="0" stopTime="0.00" timeLoss="8.86" rerouteNo="0" devices="tripinfo_2" vType="DEFAULT_VEHTYPE" speedFactor="1.01" vaporized=""/>
    <tripinfo id="3" depart="5.00" departLane="4_0_0" departPos="5.10" departSpeed="6.25" departDelay="3.00" arrival="31.00" arrivalLane="1_1_0" arrivalPos="102.05" arrivalSpeed="14.28" duration="26.00" routeLength="203.19" waitingTime="0.00" waitingCount="0" stopTime="0.00" timeLoss="11.14" rerouteNo="0" devices="tripinfo_3" vType="DEFAULT_VEHTYPE" speedFactor="1.08" vaporized=""/>
    <tripinfo id="4" depart="10.00" departLane="4_0_0" departPos="5.10" departSpeed="14.31" departDelay="0.00" arrival="33.00" arrivalLane="2_1_0" arrivalPos="106.28" arrivalSpeed="14.05" duration="23.00" routeLength="212.66" waitingTime="0.00" waitingCount="0" stopTime="0.00" timeLoss="7.31" rerouteNo="0" devices="tripinfo_4" vType="DEFAULT_VEHTYPE" speedFactor="1.03" vaporized=""/>
    <tripinfo id="5" depart="11.00" departLane="4_0_0" departPos="5.10" departSpeed="11.30" departDelay="1.00" arrival="36.00" arrivalLane="2_1_0" arrivalPos="106.28" arrivalSpeed="11.13" duration="25.00" routeLength="212.66" waitingTime="0.00" waitingCount="0" stopTime="0.00" timeLoss="6.44" rerouteNo="0" devices="tripinfo_5" vType="DEFAULT_VEHTYPE" speedFactor="0.83" vaporized=""/>
    <tripinfo id="6" depart="12.00" departLane="4_0_0" departPos="5.10" departSpeed="6.83" departDelay="2.00" arrival="38.00" arrivalLane="2_1_0" arrivalPos="106.28" arrivalSpeed="14.11" duration="26.00" routeLength="212.66" waitingTime="0.00" waitingCount="0" stopTime="0.00" timeLoss="10.81" rerouteNo="0" devices="tripinfo_6" vType="DEFAULT_VEHTYPE" speedFactor="1.05" vaporized=""/>
    <tripinfo id="7" depart="14.00" departLane="4_0_0" departPos="5.10" departSpeed="7.11" departDelay="4.00" arrival="40.00" arrivalLane="2_1_0" arrivalPos="106.28" arrivalSpeed="11.09" duration="26.00" routeLength="212.66" waitingTime="0.00" waitingCount="0" stopTime="0.00" timeLoss="8.28" rerouteNo="0" devices="tripinfo_7" vType="DEFAULT_VEHTYPE" speedFactor="0.89" vaporized=""/>
    <tripinfo id="13" depart="30.00" departLane="1_0_0" departPos="5.10" departSpeed="15.60" departDelay="0.00" arrival="48.00" arrivalLane="2_1_0" arrivalPos="106.28" arrivalSpeed="15.32" duration="18.00" routeLength="212.35" waitingTime="0.00" waitingCount="0" stopTime="0.00" timeLoss="2.94" rerouteNo="0" devices="tripinfo_13" vType="DEFAULT_VEHTYPE" speedFactor="1.12" vaporized=""/>
    <tripinfo id="14" depart="31.00" departLane="1_0_0" departPos="5.10" departSpeed="13.26" departDelay="1.00" arrival="50.00" arrivalLane="2_1_0" arrivalPos="106.28" arrivalSpeed="12.52" duration="19.00" routeLength="212.35" waitingTime="0.00" waitingCount="0" stopTime="0.00" timeLoss="2.96" rerouteNo="0" devices="tripinfo_14" vType="DEFAULT_VEHTYPE" speedFactor="0.99" vaporized=""/>
    <tripinfo id="15" depart="32.00" departLane="1_0_0" departPos="5.10" departSpeed="10.75" departDelay="2.00" arrival="54.00" arrivalLane="2_1_0" arrivalPos="106.28" arrivalSpeed="12.28" duration="22.00" routeLength="212.35" waitingTime="0.00" waitingCount="0" stopTime="0.00" timeLoss="3.73" rerouteNo="0" devices="tripinfo_15" vType="DEFAULT_VEHTYPE" speedFactor="0.93" vaporized=""/>
    <tripinfo id="16" depart="33.00" departLane="1_0_0" departPos="5.10" departSpeed="7.43" departDelay="3.00" arrival="57.00" arrivalLane="2_1_0" arrivalPos="106.28" arrivalSpeed="11.92" duration="24.00" routeLength="212.35" waitingTime="0.00" waitingCount="0" stopTime="0.00" timeLoss="5.27" rerouteNo="0" devices="tripinfo_16" vType="DEFAULT_VEHTYPE" speedFactor="0.88" vaporized=""/>
    <tripinfo id="17" depart="35.00" departLane="1_0_0" departPos="5.10" departSpeed="8.15" departDelay="5.00" arrival="59.00" arrivalLane="2_1_0" arrivalPos="106.28" arrivalSpeed="12.45" duration="24.00" routeLength="212.35" waitingTime="0.00" waitingCount="0" stopTime="0.00" timeLoss="6.84" rerouteNo="0" devices="tripinfo_17" vType="DEFAULT_VEHTYPE" speedFactor="0.94" vaporized=""/>
    <tripinfo id="18" depart="37.00" departLane="1_0_0" departPos="5.10" departSpeed="9.61" departDelay="7.00" arrival="62.00" arrivalLane="2_1_0" arrivalPos="106.28" arrivalSpeed="12.51" duration="25.00" routeLength="212.35" waitingTime="0.00" waitingCount="0" stopTime="0.00" timeLoss="7.58" rerouteNo="0" devices="tripinfo_18" vType="DEFAULT_VEHTYPE" speedFactor="0.94" vaporized=""/>
    <tripinfo id="19" depart="38.00" departLane="1_0_0" departPos="5.10" departSpeed="4.65" departDelay="8.00" arrival="63.00" arrivalLane="2_1_0" arrivalPos="106.28" arrivalSpeed="15.07" duration="25.00" routeLength="212.35" waitingTime="0.00" waitingCount="0" stopTime="0.00" timeLoss="10.88" rerouteNo="0" devices="tripinfo_19" vType="DEFAULT_VEHTYPE" speedFactor="1.16" vaporized=""/>
    <tripinfo id="20" depart="40.00" departLane="1_0_0" departPos="5.10" departSpeed="4.74" departDelay="10.00" arrival="66.00" arrivalLane="2_1_0" arrivalPos="106.28" arrivalSpeed="13.38" duration="26.00" routeLength="212.35" waitingTime="0.00" waitingCount="0" stopTime="0.00" timeLoss="9.94" rerouteNo="0" devices="tripinfo_20" vType="DEFAULT_VEHTYPE" speedFactor="1.02" vaporized=""/>
    <tripinfo id="21" depart="42.00" departLane="1_0_0" departPos="5.10" departSpeed="5.23" departDelay="12.00" arrival="69.00" arrivalLane="2_1_0" arrivalPos="106.28" arrivalSpeed="12.76" duration="27.00" routeLength="212.35" waitingTime="0.00" waitingCount="0" stopTime="0.00" timeLoss="10.54" rerouteNo="0" devices="tripinfo_21" vType="DEFAULT_VEHTYPE" speedFactor="1.01" vaporized=""/>
    <tripinfo id="22" depart="44.00" departLane="1_0_0" departPos="5.10" departSpeed="5.59" departDelay="14.00" arrival="71.00" arrivalLane="2_1_0" arrivalPos="106.28" arrivalSpeed="13.45" duration="27.00" routeLength="212.35" waitingTime="0.00" waitingCount="0" stopTime="0.00" timeLoss="10.68" rerouteNo="0" devices="tripinfo_22" vType="DEFAULT_VEHTYPE" speedFactor="0.98" vaporized=""/>
    <tripinfo id="23" depart="46.00" departLane="1_0_0" departPos="5.10" departSpeed="6.15" departDelay="6.00" arrival="74.00" arrivalLane="4_1_0" arrivalPos="96.66" arrivalSpeed="11.80" duration="28.00" routeLength="208.05" waitingTime="0.00" waitingCount="0" stopTime="0.00" timeLoss="9.95" rerouteNo="0" devices="tripinfo_23" vType="DEFAULT_VEHTYPE" speedFactor="0.89" vaporized=""/>
    <tripinfo id="8" depart="22.00" departLane="3_0_0" departPos="5.10" departSpeed="13.03" departDelay="0.00" arrival="75.00" arrivalLane="2_1_0" arrivalPos="106.28" arrivalSpeed="11.78" duration="53.00" routeLength="211.90" waitingTime="26.00" waitingCount="1" stopTime="0.00" timeLoss="35.51" rerouteNo="0" devices="tripinfo_8" vType="DEFAULT_VEHTYPE" speedFactor="0.94" vaporized=""/>
    <tripinfo id="9" depart="23.00" departLane="3_0_0" departPos="5.10" departSpeed="9.59" departDelay="1.00" arrival="78.00" arrivalLane="2_1_0" arrivalPos="106.28" arrivalSpeed="10.80" duration="55.00" routeLength="211.90" waitingTime="26.00" waitingCount="1" stopTime="0.00" timeLoss="35.76" rerouteNo="0" devices="tripinfo_9" vType="DEFAULT_VEHTYPE" speedFactor="0.86" vaporized=""/>
    <tripinfo id="24" depart="48.00" departLane="1_0_0" departPos="5.10" departSpeed="6.55" departDelay="8.00" arrival="78.00" arrivalLane="4_1_0" arrivalPos="96.66" arrivalSpeed="10.59" duration="30.00" routeLength="208.05" waitingTime="0.00" waitingCount="0" stopTime="0.00" timeLoss="10.57" rerouteNo="0" devices="tripinfo_24" vType="DEFAULT_VEHTYPE" speedFactor="0.83" vaporized=""/>
    <tripinfo id="10" depart="24.00" departLane="3_0_0" departPos="5.10" departSpeed="6.11" departDelay="2.00" arrival="80.00" arrivalLane="2_1_0" arrivalPos="106.28" arrivalSpeed="14.50" duration="56.00" routeLength="211.90" waitingTime="26.00" waitingCount="1" stopTime="0.00" timeLoss="40.60" rerouteNo="0" devices="tripinfo_10" vType="DEFAULT_VEHTYPE" speedFactor="1.09" vaporized=""/>
    <tripinfo id="25" depart="50.00" departLane="1_0_0" departPos="5.10" departSpeed="4.37" departDelay="10.00" arrival="80.00" arrivalLane="4_1_0" arrivalPos="96.66" arrivalSpeed="11.66" duration="30.00" routeLength="208.05" waitingTime="0.00" waitingCount="0" stopTime="0.00" timeLoss="11.86" rerouteNo="0" devices="tripinfo_25" vType="DEFAULT_VEHTYPE" speedFactor="0.87" vaporized=""/>
    <tripinfo id="53" depart="66.00" departLane="1_0_0" departPos="5.10" departSpeed="15.22" departDelay="0.00" arrival="81.00" arrivalLane="3_1_0" arrivalPos="96.33" arrivalSpeed="14.07" duration="15.00" routeLength="207.83" waitingTime="0.00" waitingCount="0" stopTime="0.00" timeLoss="0.76" rerouteNo="0" devices="tripinfo_53" vType="DEFAULT_VEHTYPE" speedFactor="1.10" vaporized=""/>
    <tripinfo id="54" depart="67.00" departLane="1_0_0" departPos="5.10" departSpeed="12.22" departDelay="1.00" arrival="83.00" arrivalLane="3_1_0" arrivalPos="96.33" arrivalSpeed="13.10" duration="16.00" routeLength="207.83" waitingTime="0.00" waitingCount="0" stopTime="0.00" timeLoss="0.92" rerouteNo="0" devices="tripinfo_54" vType="DEFAULT_VEHTYPE" speedFactor="1.00" vaporized=""/>
    <tripinfo id="55" depart="68.00" departLane="1_0_0" departPos="5.10" departSpeed="9.26" departDelay="2.00" arrival="85.00" arrivalLane="3_1_0" arrivalPos="96.33" arrivalSpeed="12.93" duration="17.00" routeLength="207.83" waitingTime="0.00" waitingCount="0" stopTime="0.00" timeLoss="1.68" rerouteNo="0" devices="tripinfo_55" vType="DEFAULT_VEHTYPE" speedFactor="1.00" vaporized=""/>
    <tripinfo id="56" depart="69.00" departLane="1_0_0" departPos="5.10" departSpeed="4.30" departDelay="3.00" arrival="89.00" arrivalLane="3_1_0" arrivalPos="96.33" arrivalSpeed="12.09" duration="20.00" routeLength="207.83" waitingTime="0.00" waitingCount="0" stopTime="0.00" timeLoss="2.55" rerouteNo="0" devices="tripinfo_56" vType="DEFAULT_VEHTYPE" speedFactor="0.90" vaporized=""/>
    <tripinfo id="57" depart="71.00" departLane="1_0_0" departPos="5.10" departSpeed="4.72" departDelay="5.00" arrival="90.00" arrivalLane="3_1_0" arrivalPos="96.33" arrivalSpeed="13.52" duration="19.00" routeLength="207.83" waitingTime="0.00" waitingCount="0" stopTime="0.00" timeLoss="5.82" rerouteNo="0" devices="tripinfo_57" vType="DEFAULT_VEHTYPE" speedFactor="1.14" vaporized=""/>
    <tripinfo id="58" depart="73.00" departLane="1_0_0" departPos="5.10" departSpeed="5.12" departDelay="7.00" arrival="92.00" arrivalLane="3_1_0" arrivalPos="96.33" arrivalSpeed="13.32" duration="19.00" routeLength="207.83" waitingTime="0.00" waitingCount="0" stopTime="0.00" timeLoss="4.09" rerouteNo="0" devices="tripinfo_58" vType="DEFAULT_VEHTYPE" speedFactor="1.02" vaporized=""/>
    <tripinfo id="59" depart="75.00" departLane="1_0_0" departPos="5.10" departSpeed="6.15" departDelay="9.00" arrival="94.00" arrivalLane="3_1_0" arrivalPos="96.33" arrivalSpeed="12.47" duration="19.00" routeLength="207.83" waitingTime="0.00" waitingCount="0" stopTime="0.00" timeLoss="3.21" rerouteNo="0" devices="tripinfo_59" vType="DEFAULT_VEHTYPE" speedFactor="0.97" vaporized=""/>
    <tripinfo id="11" depart="26.00" departLane="3_0_0" departPos="5.10" departSpeed="5.65" departDelay="4.00" arrival="98.00" arrivalLane="2_1_0" arrivalPos="106.28" arrivalSpeed="13.50" duration="72.00" routeLength="211.90" waitingTime="38.00" waitingCount="2" stopTime="0.00" timeLoss="56.37" rerouteNo="0" devices="tripinfo_11" vType="DEFAULT_VEHTYPE" speedFactor="1.03" vaporized=""/>
    <tripinfo id="12" depart="28.00" departLane="3_0_0" departPos="5.10" departSpeed="4.96" departDelay="4.00" arrival="99.00" arrivalLane="4_1_0" arrivalPos="96.66" arrivalSpeed="14.20" duration="71.00" routeLength="196.93" waitingTime="34.00" waitingCount="2" stopTime="0.00" timeLoss="56.01" rerouteNo="0" devices="tripinfo_12" vType="DEFAULT_VEHTYPE" speedFactor="1.05" vaporized=""/>
    <tripinfo id="44" depart="65.00" departLane="3_0_0" departPos="5.10" departSpeed="14.49" departDelay="0.00" arrival="101.00" arrivalLane="1_1_0" arrivalPos="102.05" arrivalSpeed="14.27" duration="36.00" routeLength="207.89" waitingTime="11.00" waitingCount="1" stopTime="0.00" timeLoss="21.31" rerouteNo="0" devices="tripinfo_44" vType="DEFAULT_VEHTYPE" speedFactor="1.04" vaporized=""/>
    <tripinfo id="26" depart="47.00" departLane="2_0_0" departPos="5.10" departSpeed="12.74" departDelay="0.00" arrival="108.00" arrivalLane="1_1_0" arrivalPos="102.05" arrivalSpeed="11.90" duration="61.00" routeLength="217.48" waitingTime="37.00" waitingCount="1" stopTime="0.00" timeLoss="42.95" rerouteNo="0" devices="tripinfo_26" vType="DEFAULT_VEHTYPE" speedFactor="0.92" vaporized=""/>
    <tripinfo id="27" depart="52.00" departLane="2_0_0" departPos="5.10" departSpeed="13.18" departDelay="0.00" arrival="110.00" arrivalLane="3_1_0" arrivalPos="96.33" arrivalSpeed="13.06" duration="58.00" routeLength="206.64" waitingTime="33.00" waitingCount="1" stopTime="0.00" timeLoss="40.73" rerouteNo="0" devices="tripinfo_27" vType="DEFAULT_VEHTYPE" speedFactor="0.95" vaporized=""/>
    <tripinfo id="28" depart="53.00" departLane="2_0_0" departPos="5.10" departSpeed="9.56" departDelay="1.00" arrival="112.00" arrivalLane="3_1_0" arrivalPos="96.33" arrivalSpeed="14.78" duration="59.00" routeLength="206.64" waitingTime="32.00" waitingCount="1" stopTime="0.00" timeLoss="44.22" rerouteNo="0" devices="tripinfo_28" vType="DEFAULT_VEHTYPE" speedFactor="1.13" vaporized=""/>
    <tripinfo id="29" depart="54.00" departLane="2_0_0" departPos="5.10" departSpeed="5.49" departDelay="2.00" arrival="115.00" arrivalLane="3_1_0" arrivalPos="96.33" arrivalSpeed="11.90" duration="61.00" routeLength="206.64" waitingTime="32.00" waitingCount="1" stopTime="0.00" timeLoss="44.21" rerouteNo="0" devices="tripinfo_29" vType="DEFAULT_VEHTYPE" speedFactor="0.93" vaporized=""/>
    <tripinfo id="30" depart="56.00" departLane="2_0_0" departPos="5.10" departSpeed="4.54" departDelay="4.00" arrival="117.00" arrivalLane="3_1_0" arrivalPos="96.33" arrivalSpeed="15.59" duration="61.00" routeLength="206.64" waitingTime="30.00" waitingCount="1" stopTime="0.00" timeLoss="46.77" rerouteNo="0" devices="tripinfo_30" vType="DEFAULT_VEHTYPE" speedFactor="1.18" vaporized=""/>
    <tripinfo id="31" depart="58.00" departLane="2_0_0" departPos="5.10" departSpeed="2.14" departDelay="6.00" arrival="119.00" arrivalLane="3_1_0" arrivalPos="96.33" arrivalSpeed="15.36" duration="61.00" routeLength="206.64" waitingTime="30.00" waitingCount="1" stopTime="0.00" timeLoss="46.73" rerouteNo="0" devices="tripinfo_31" vType="DEFAULT_VEHTYPE" speedFactor="1.15" vaporized=""/>
    <tripinfo id="32" depart="61.00" departLane="2_0_0" departPos="5.10" departSpeed="4.16" departDelay="9.00" arrival="122.00" arrivalLane="3_1_0" arrivalPos="96.33" arrivalSpeed="13.79" duration="61.00" routeLength="206.64" waitingTime="29.00" waitingCount="1" stopTime="0.00" timeLoss="45.04" rerouteNo="0" devices="tripinfo_32" vType="DEFAULT_VEHTYPE" speedFactor="1.01" vaporized=""/>
    <tripinfo id="33" depart="63.00" departLane="2_0_0" departPos="5.10" departSpeed="4.69" departDelay="11.00" arrival="124.00" arrivalLane="3_1_0" arrivalPos="96.33" arrivalSpeed="15.14" duration="61.00" routeLength="206.64" waitingTime="28.00" waitingCount="1" stopTime="0.00" timeLoss="47.37" rerouteNo="0" devices="tripinfo_33" vType="DEFAULT_VEHTYPE" speedFactor="1.17" vaporized=""/>
    <tripinfo id="34" depart="65.00" departLane="2_0_0" departPos="5.10" departSpeed="4.85" departDelay="13.00" arrival="127.00" arrivalLane="3_1_0" arrivalPos="96.33" arrivalSpeed="12.59" duration="62.00" routeLength="206.64" waitingTime="28.00" waitingCount="1" stopTime="0.00" timeLoss="45.63" rerouteNo="0" devices="tripinfo_34" vType="DEFAULT_VEHTYPE" speedFactor="0.99" vaporized=""/>
    <tripinfo id="35" depart="67.00" departLane="2_0_0" departPos="5.10" departSpeed="3.99" departDelay="6.00" arrival="128.00" arrivalLane="4_1_0" arrivalPos="96.66" arrivalSpeed="13.87" duration="61.00" routeLength="212.38" waitingTime="27.00" waitingCount="1" stopTime="0.00" timeLoss="45.74" rerouteNo="0" devices="tripinfo_35" vType="DEFAULT_VEHTYPE" speedFactor="1.02" vaporized=""/>
    <tripinfo id="36" depart="69.00" departLane="2_0_0" departPos="5.10" departSpeed="0.34" departDelay="8.00" arrival="131.00" arrivalLane="4_1_0" arrivalPos="96.66" arrivalSpeed="13.28" duration="62.00" routeLength="212.38" waitingTime="29.00" waitingCount="1" stopTime="0.00" timeLoss="45.54" rerouteNo="0" devices="tripinfo_36" vType="DEFAULT_VEHTYPE" speedFactor="0.97" vaporized=""/>
    <tripinfo id="37" depart="72.00" departLane="2_0_0" departPos="5.10" departSpeed="0.04" departDelay="11.00" arrival="132.00" arrivalLane="4_1_0" arrivalPos="96.66" arrivalSpeed="15.65" duration="60.00" routeLength="212.38" waitingTime="29.00" waitingCount="2" stopTime="0.00" timeLoss="46.84" rerouteNo="0" devices="tripinfo_37" vType="DEFAULT_VEHTYPE" speedFactor="1.18" vaporized=""/>
    <tripinfo id="38" depart="76.00" departLane="2_0_0" departPos="5.10" departSpeed="4.94" departDelay="15.00" arrival="134.00" arrivalLane="4_1_0" arrivalPos="96.66" arrivalSpeed="14.41" duration="58.00" routeLength="212.38" waitingTime="26.00" waitingCount="1" stopTime="0.00" timeLoss="43.70" rerouteNo="0" devices="tripinfo_38" vType="DEFAULT_VEHTYPE" speedFactor="1.10" vaporized=""/>
    <tripinfo id="39" depart="79.00" departLane="2_0_0" departPos="5.10" departSpeed="0.52" departDelay="18.00" arrival="137.00" arrivalLane="4_1_0" arrivalPos="96.66" arrivalSpeed="12.26" duration="58.00" routeLength="212.38" waitingTime="24.00" waitingCount="1" stopTime="0.00" timeLoss="40.42" rerouteNo="0" devices="tripinfo_39" vType="DEFAULT_VEHTYPE" speedFactor="0.90" vaporized=""/>
    <tripinfo id="40" depart="113.00" departLane="2_0_0" departPos="5.10" departSpeed="0.46" departDelay="52.00" arrival="139.00" arrivalLane="4_1_0" arrivalPos="96.66" arrivalSpeed="13.03" duration="26.00" routeLength="212.38" waitingTime="0.00" waitingCount="0" stopTime="0.00" timeLoss="10.33" rerouteNo="0" devices="tripinfo_40" vType="DEFAULT_VEHTYPE" speedFactor="1.03" vaporized=""/>
    <tripinfo id="41" depart="116.00" departLane="2_0_0" departPos="5.10" departSpeed="0.44" departDelay="55.00" arrival="140.00" arrivalLane="4_1_0" arrivalPos="96.66" arrivalSpeed="12.03" duration="24.00" routeLength="212.38" waitingTime="0.00" waitingCount="0" stopTime="0.00" timeLoss="7.99" rerouteNo="0" devices="tripinfo_41" vType="DEFAULT_VEHTYPE" speedFactor="0.96" vaporized=""/>
    <tripinfo id="42" depart="120.00" departLane="2_0_0" departPos="5.10" departSpeed="5.68" departDelay="59.00" arrival="142.00" arrivalLane="4_1_0" arrivalPos="96.66" arrivalSpeed="14.43" duration="22.00" routeLength="212.38" waitingTime="0.00" waitingCount="0" stopTime="0.00" timeLoss="7.43" rerouteNo="0" devices="tripinfo_42" vType="DEFAULT_VEHTYPE" speedFactor="1.09" vaporized=""/>
    <tripinfo id="43" depart="122.00" departLane="2_0_0" departPos="5.10" departSpeed="5.74" departDelay="61.00" arrival="144.00" arrivalLane="4_1_0" arrivalPos="96.66" arrivalSpeed="13.34" duration="22.00" routeLength="212.38" waitingTime="0.00" waitingCount="0" stopTime="0.00" timeLoss="6.59" rerouteNo="0" devices="tripinfo_43" vType="DEFAULT_VEHTYPE" speedFactor="1.04" vaporized=""/>
    <tripinfo id="45" depart="66.00" departLane="3_0_0" departPos="5.10" departSpeed="10.72" departDelay="1.00" arrival="150.00" arrivalLane="1_1_0" arrivalPos="102.05" arrivalSpeed="15.06" duration="84.00" routeLength="207.89" waitingTime="53.00" waitingCount="2" stopTime="0.00" timeLoss="69.78" rerouteNo="0" devices="tripinfo_45" vType="DEFAULT_VEHTYPE" speedFactor="1.09" vaporized=""/>
    <tripinfo id="46" depart="67.00" departLane="3_0_0" departPos="5.10" departSpeed="6.46" departDelay="2.00" arrival="152.00" arrivalLane="1_1_0" arrivalPos="102.05" arrivalSpeed="13.67" duration="85.00" routeLength="207.89" waitingTime="52.00" waitingCount="2" stopTime="0.00" timeLoss="69.97" rerouteNo="0" devices="tripinfo_46" vType="DEFAULT_VEHTYPE" speedFactor="1.00" vaporized=""/>
    <tripinfo id="47" depart="69.00" departLane="3_0_0" departPos="5.10" departSpeed="5.72" departDelay="4.00" arrival="155.00" arrivalLane="1_1_0" arrivalPos="102.05" arrivalSpeed="11.96" duration="86.00" routeLength="207.89" waitingTime="51.00" waitingCount="2" stopTime="0.00" timeLoss="69.03" rerouteNo="0" devices="tripinfo_47" vType="DEFAULT_VEHTYPE" speedFactor="0.90" vaporized=""/>
    <tripinfo id="48" depart="71.00" departLane="3_0_0" departPos="5.10" departSpeed="6.11" departDelay="6.00" arrival="158.00" arrivalLane="1_1_0" arrivalPos="102.05" arrivalSpeed="11.70" duration="87.00" routeLength="207.89" waitingTime="49.00" waitingCount="2" stopTime="0.00" timeLoss="69.02" rerouteNo="0" devices="tripinfo_48" vType="DEFAULT_VEHTYPE" speedFactor="0.88" vaporized=""/>
    <tripinfo id="49" depart="73.00" departLane="3_0_0" departPos="5.10" departSpeed="6.35" departDelay="8.00" arrival="160.00" arrivalLane="1_1_0" arrivalPos="102.05" arrivalSpeed="11.05" duration="87.00" routeLength="207.89" waitingTime="49.00" waitingCount="2" stopTime="0.00" timeLoss="68.52" rerouteNo="0" devices="tripinfo_49" vType="DEFAULT_VEHTYPE" speedFactor="0.85" vaporized=""/>
    <tripinfo id="50" depart="75.00" departLane="3_0_0" departPos="5.10" departSpeed="6.40" departDelay="10.00" arrival="162.00" arrivalLane="1_1_0" arrivalPos="102.05" arrivalSpeed="11.29" duration="87.00" routeLength="207.89" waitingTime="47.00" waitingCount="2" stopTime="0.00" timeLoss="68.62" rerouteNo="0" devices="tripinfo_50" vType="DEFAULT_VEHTYPE" speedFactor="0.85" vaporized=""/>
    <tripinfo id="51" depart="77.00" departLane="3_0_0" departPos="5.10" departSpeed="6.74" departDelay="12.00" arrival="163.00" arrivalLane="1_1_0" arrivalPos="102.05" arrivalSpeed="12.97" duration="86.00" routeLength="207.89" waitingTime="47.00" waitingCount="2" stopTime="0.00" timeLoss="73.01" rerouteNo="0" devices="tripinfo_51" vType="DEFAULT_VEHTYPE" speedFactor="1.17" vaporized=""/>
    <tripinfo id="52" depart="79.00" departLane="3_0_0" departPos="5.10" departSpeed="6.07" departDelay="14.00" arrival="165.00" arrivalLane="1_1_0" arrivalPos="102.05" arrivalSpeed="12.97" duration="86.00" routeLength="207.89" waitingTime="47.00" waitingCount="2" stopTime="0.00" timeLoss="70.80" rerouteNo="0" devices="tripinfo_52" vType="DEFAULT_VEHTYPE" speedFactor="1.02" vaporized=""/>
    <tripinfo id="60" depart="312.00" departLane="3_0_0" departPos="5.10" departSpeed="15.04" departDelay="0.00" arrival="329.00" arrivalLane="4_1_0" arrivalPos="96.66" arrivalSpeed="13.99" duration="17.00" routeLength="196.93" waitingTime="0.00" waitingCount="0" stopTime="0.00" timeLoss="2.69" rerouteNo="0" devices="tripinfo_60" vType="DEFAULT_VEHTYPE" speedFactor="1.08" vaporized=""/>
    <tripinfo id="72" depart="318.00" departLane="4_0_0" departPos="5.10" departSpeed="13.06" departDelay="0.00" arrival="335.00" arrivalLane="2_1_0" arrivalPos="106.28" arrivalSpeed="12.30" duration="17.00" routeLength="212.66" waitingTime="0.00" waitingCount="0" stopTime="0.00" timeLoss="0.69" rerouteNo="0" devices="tripinfo_72" vType="DEFAULT_VEHTYPE" speedFactor="0.94" vaporized=""/>
    <tripinfo id="73" depart="319.00" departLane="4_0_0" departPos="5.10" departSpeed="9.95" departDelay="1.00" arrival="337.00" arrivalLane="2_1_0" arrivalPos="106.28" arrivalSpeed="13.40" duration="18.00" routeLength="212.66" waitingTime="0.00" waitingCount="0" stopTime="0.00" timeLoss="3.08" rerouteNo="0" devices="tripinfo_73" vType="DEFAULT_VEHTYPE" speedFactor="1.06" vaporized=""/>
    <tripinfo id="74" depart="320.00" departLane="4_0_0" departPos="5.10" departSpeed="6.63" departDelay="2.00" arrival="339.00" arrivalLane="2_1_0" arrivalPos="106.28" arrivalSpeed="12.79" duration="19.00" routeLength="212.66" waitingTime="0.00" waitingCount="0" stopTime="0.00" timeLoss="2.51" rerouteNo="0" devices="tripinfo_74" vType="DEFAULT_VEHTYPE" speedFactor="0.96" vaporized=""/>
    <tripinfo id="75" depart="322.00" departLane="4_0_0" departPos="5.10" departSpeed="6.61" departDelay="4.00" arrival="341.00" arrivalLane="2_1_0" arrivalPos="106.28" arrivalSpeed="13.46" duration="19.00" routeLength="212.66" waitingTime="0.00" waitingCount="0" stopTime="0.00" timeLoss="2.74" rerouteNo="0" devices="tripinfo_75" vType="DEFAULT_VEHTYPE" speedFactor="0.98" vaporized=""/>
    <tripinfo id="76" depart="324.00" departLane="4_0_0" departPos="5.10" departSpeed="6.88" departDelay="6.00" arrival="342.00" arrivalLane="2_1_0" arrivalPos="106.28" arrivalSpeed="13.41" duration="18.00" routeLength="212.66" waitingTime="0.00" waitingCount="0" stopTime="0.00" timeLoss="3.16" rerouteNo="0" devices="tripinfo_76" vType="DEFAULT_VEHTYPE" speedFactor="1.03" vaporized=""/>
    <tripinfo id="61" depart="315.00" departLane="3_0_0" departPos="5.10" departSpeed="15.55" departDelay="0.00" arrival="348.00" arrivalLane="2_1_0" arrivalPos="106.28" arrivalSpeed="15.07" duration="33.00" routeLength="211.90" waitingTime="11.00" waitingCount="1" stopTime="0.00" timeLoss="18.20" rerouteNo="0" devices="tripinfo_61" vType="DEFAULT_VEHTYPE" speedFactor="1.12" vaporized=""/>
    <tripinfo id="62" depart="316.00" departLane="3_0_0" departPos="5.10" departSpeed="13.00" departDelay="1.00" arrival="351.00" arrivalLane="2_1_0" arrivalPos="106.28" arrivalSpeed="13.89" duration="35.00" routeLength="211.90" waitingTime="10.00" waitingCount="1" stopTime="0.00" timeLoss="18.73" rerouteNo="0" devices="tripinfo_62" vType="DEFAULT_VEHTYPE" speedFactor="1.02" vaporized=""/>
    <tripinfo id="63" depart="317.00" departLane="3_0_0" departPos="5.10" departSpeed="9.46" departDelay="2.00" arrival="354.00" arrivalLane="2_1_0" arrivalPos="106.28" arrivalSpeed="13.39" duration="37.00" routeLength="211.90" waitingTime="10.00" waitingCount="1" stopTime="0.00" timeLoss="20.43" rerouteNo="0" devices="tripinfo_63" vType="DEFAULT_VEHTYPE" speedFactor="0.99" vaporized=""/>
    <tripinfo id="64" depart="318.00" departLane="3_0_0" departPos="5.10" departSpeed="5.12" departDelay="3.00" arrival="357.00" arrivalLane="2_1_0" arrivalPos="106.28" arrivalSpeed="12.96" duration="39.00" routeLength="211.90" waitingTime="8.00" waitingCount="1" stopTime="0.00" timeLoss="21.33" rerouteNo="0" devices="tripinfo_64" vType="DEFAULT_VEHTYPE" speedFactor="0.94" vaporized=""/>
    <tripinfo id="65" depart="320.00" departLane="3_0_0" departPos="5.10" departSpeed="3.94" departDelay="5.00" arrival="360.00" arrivalLane="2_1_0" arrivalPos="106.28" arrivalSpeed="11.73" duration="40.00" routeLength="211.90" waitingTime="8.00" waitingCount="1" stopTime="0.00" timeLoss="21.55" rerouteNo="0" devices="tripinfo_65" vType="DEFAULT_VEHTYPE" speedFactor="0.88" vaporized=""/>
    <tripinfo id="66" depart="323.00" departLane="3_0_0" departPos="5.10" departSpeed="6.77" departDelay="8.00" arrival="362.00" arrivalLane="2_1_0" arrivalPos="106.28" arrivalSpeed="11.56" duration="39.00" routeLength="211.90" waitingTime="8.00" waitingCount="1" stopTime="0.00" timeLoss="21.52" rerouteNo="0" devices="tripinfo_66" vType="DEFAULT_VEHTYPE" speedFactor="0.91" vaporized=""/>
    <tripinfo id="101" depart="344.00" departLane="1_0_0" departPos="5.10" departSpeed="13.29" departDelay="0.00" arrival="363.00" arrivalLane="4_1_0" arrivalPos="96.66" arrivalSpeed="12.60" duration="19.00" routeLength="208.05" waitingTime="0.00" waitingCount="0" stopTime="0.00" timeLoss="2.66" rerouteNo="0" devices="tripinfo_101" vType="DEFAULT_VEHTYPE" speedFactor="0.96" vaporized=""/>