<?xml version="1.0" encoding="UTF-8"?>

<!-- generated on 2022-10-27 13:57:18 by Eclipse SUMO GUI Version 1.12.0
<configuration xmlns:xsi="http://www.w3.org/2001/XMLSchema-instance" xsi:noNamespaceSchemaLocation="http://sumo.dlr.de/xsd/sumoConfiguration.xsd">

    <input>
        <net-file value="C:\Users\Burak\Desktop\mosas-projesi\QL_Tek_serit_Kilis_7902_Mosas_Verisi\mosas_kilis_7902_delay_based.net.xml"/>
        <route-files value="C:\Users\Burak\Desktop\mosas-projesi\QL_Tek_serit_Kilis_7902_Mosas_Verisi\episode_routes.rou.xml"/>
        <additional-files value="C:\Users\Burak\Desktop\mosas-projesi\QL_Tek_serit_Kilis_7902_Mosas_Verisi\mosas_kilis_7902.det.xml"/>
    </input>

    <output>
        <tripinfo-output value="C:\Users\Burak\Desktop\mosas-projesi\QL_Tek_serit_Kilis_7902_Mosas_Verisi\my_intersection.trips.xml"/>
    </output>

    <time>
        <begin value="0"/>
        <end value="60000"/>
    </time>

    <report>
        <verbose value="true"/>
        <log value="C:\Users\Burak\Desktop\mosas-projesi\QL_Tek_serit_Kilis_7902_Mosas_Verisi\my_out.xml"/>
        <no-step-log value="true"/>
    </report>

</configuration>
-->

<detector xmlns:xsi="http://www.w3.org/2001/XMLSchema-instance" xsi:noNamespaceSchemaLocation="http://sumo.dlr.de/xsd/det_e2_file.xsd">
   <interval begin="0.00" end="300.00" id="TLSJ0_1_E2CollectorOn_2_0_0" sampledSeconds="770.46" nVehEntered="18" nVehLeft="18" nVehSeen="18" meanSpeed="2.48" meanTimeLoss="35.11" meanOccupancy="11.86" maxOccupancy="65.86" meanMaxJamLengthInVehicles="0.00" meanMaxJamLengthInMeters="0.00" maxJamLengthInVehicles="0" maxJamLengthInMeters="0.00" jamLengthInVehiclesSum="0" jamLengthInMetersSum="0.00" meanHaltingDuration="0.00" maxHaltingDuration="0.00" haltingDurationSum="0.00" meanIntervalHaltingDuration="0.00" maxIntervalHaltingDuration="0.00" intervalHaltingDurationSum="0.00" startedHalts="0.00" meanVehicleNumber="2.59" maxVehicleNumber="14" />
   <interval begin="0.00" end="300.00" id="TLSJ0_1_E2CollectorOn_1_0_0" sampledSeconds="251.81" nVehEntered="20" nVehLeft="20" nVehSeen="20" meanSpeed="8.10" meanTimeLoss="4.71" meanOccupancy="3.83" maxOccupancy="34.31" meanMaxJamLengthInVehicles="0.00" meanMaxJamLengthInMeters="0.00" maxJamLengthInVehicles="0" maxJamLengthInMeters="0.00" jamLengthInVehiclesSum="0" jamLengthInMetersSum="0.00" meanHaltingDuration="0.00" maxHaltingDuration="0.00" haltingDurationSum="0.00" meanIntervalHaltingDuration="0.00" maxIntervalHaltingDuration="0.00" intervalHaltingDurationSum="0.00" startedHalts="0.00" meanVehicleNumber="0.88" maxVehicleNumber="8" />
   <interval begin="0.00" end="300.00" id="TLSJ0_1_E2CollectorOn_4_0_0" sampledSeconds="113.76" nVehEntered="8" nVehLeft="8" nVehSeen="8" meanSpeed="6.79" meanTimeLoss="6.83" meanOccupancy="1.84" maxOccupancy="36.21" meanMaxJamLengthInVehicles="0.00" meanMaxJamLengthInMeters="0.00" maxJamLengthInVehicles="0" maxJamLengthInMeters="0.00" jamLengthInVehiclesSum="0" jamLengthInMetersSum="0.00" meanHaltingDuration="0.00" maxHaltingDuration="0.00" haltingDurationSum="0.00" meanIntervalHaltingDuration="0.00" maxIntervalHaltingDuration="0.00" intervalHaltingDurationSum="0.00" startedHalts="0.00" meanVehicleNumber="0.39" maxVehicleNumber="7" />
   <interval begin="0.00" end="300.00" id="TLSJ0_1_E2CollectorOn_3_0_0" sampledSeconds="882.53" nVehEntered="14" nVehLeft="14" nVehSeen="14" meanSpeed="1.53" meanTimeLoss="55.77" meanOccupancy="14.43" maxOccupancy="52.83" meanMaxJamLengthInVehicles="0.00" meanMaxJamLengthInMeters="0.00" maxJamLengthInVehicles="0" maxJamLengthInMeters="0.00" jamLengthInVehiclesSum="0" jamLengthInMetersSum="0.00" meanHaltingDuration="0.00" maxHaltingDuration="0.00" haltingDurationSum="0.00" meanIntervalHaltingDuration="0.00" maxIntervalHaltingDuration="0.00" intervalHaltingDurationSum="0.00" startedHalts="0.00" meanVehicleNumber="2.97" maxVehicleNumber="11" />
   <interval begin="300.00" end="600.00" id="TLSJ0_1_E2CollectorOn_2_0_0" sampledSeconds="1177.67" nVehEntered="31" nVehLeft="31" nVehSeen="31" meanSpeed="2.79" meanTimeLoss="30.13" meanOccupancy="18.08" maxOccupancy="65.86" meanMaxJamLengthInVehicles="0.00" meanMaxJamLengthInMeters="0.00" maxJamLengthInVehicles="0" maxJamLengthInMeters="0.00" jamLengthInVehiclesSum="0" jamLengthInMetersSum="0.00" meanHaltingDuration="0.00" maxHaltingDuration="0.00" haltingDurationSum="0.00" meanIntervalHaltingDuration="0.00" maxIntervalHaltingDuration="0.00" intervalHaltingDurationSum="0.00" startedHalts="0.00" meanVehicleNumber="3.98" maxVehicleNumber="14" />
   <interval begin="300.00" end="600.00" id="TLSJ0_1_E2CollectorOn_1_0_0" sampledSeconds="126.48" nVehEntered="13" nVehLeft="13" nVehSeen="13" meanSpeed="10.48" meanTimeLoss="2.23" meanOccupancy="1.91" maxOccupancy="24.50" meanMaxJamLengthInVehicles="0.00" meanMaxJamLengthInMeters="0.00" maxJamLengthInVehicles="0" maxJamLengthInMeters="0.00" jamLengthInVehiclesSum="0" jamLengthInMetersSum="0.00" meanHaltingDuration="0.00" maxHaltingDuration="0.00" haltingDurationSum="0.00" meanIntervalHaltingDuration="0.00" maxIntervalHaltingDuration="0.00" intervalHaltingDurationSum="0.00" startedHalts="0.00" meanVehicleNumber="0.44" maxVehicleNumber="6" />
   <interval begin="300.00" end="600.00" id="TLSJ0_1_E2CollectorOn_4_0_0" sampledSeconds="115.88" nVehEntered="6" nVehLeft="6" nVehSeen="6" meanSpeed="5.00" meanTimeLoss="12.20" meanOccupancy="1.92" maxOccupancy="25.86" meanMaxJamLengthInVehicles="0.00" meanMaxJamLengthInMeters="0.00" maxJamLengthInVehicles="0" maxJamLengthInMeters="0.00" jamLengthInVehiclesSum="0" jamLengthInMetersSum="0.00" meanHaltingDuration="0.00" maxHaltingDuration="0.00" haltingDurationSum="0.00" meanIntervalHaltingDuration="0.00" maxIntervalHaltingDuration="0.00" intervalHaltingDurationSum="0.00" startedHalts="0.00" meanVehicleNumber="0.40" maxVehicleNumber="5" />
   <interval begin="300.00" end="600.00" id="TLSJ0_1_E2CollectorOn_3_0_0" sampledSeconds="1124.04" nVehEntered="18" nVehLeft="18" nVehSeen="18" meanSpeed="1.54" meanTimeLoss="55.24" meanOccupancy="18.73" maxOccupancy="61.31" meanMaxJamLengthInVehicles="0.00" meanMaxJamLengthInMeters="0.00" maxJamLengthInVehicles="0" maxJamLengthInMeters="0.00" jamLengthInVehiclesSum="0" jamLengthInMetersSum="0.00" meanHaltingDuration="0.00" maxHaltingDuration="0.00" haltingDurationSum="0.00" meanIntervalHaltingDuration="0.00" maxIntervalHaltingDuration="0.00" intervalHaltingDurationSum="0.00" startedHalts="0.00" meanVehicleNumber="3.77" maxVehicleNumber="12" />
   <interval begin="600.00" end="900.00" id="TLSJ0_1_E2CollectorOn_2_0_0" sampledSeconds="930.71" nVehEntered="14" nVehLeft="14" nVehSeen="14" meanSpeed="1.60" meanTimeLoss="58.21" meanOccupancy="14.32" maxOccupancy="65.86" meanMaxJamLengthInVehicles="0.00" meanMaxJamLengthInMeters="0.00" maxJamLengthInVehicles="0" maxJamLengthInMeters="0.00" jamLengthInVehiclesSum="0" jamLengthInMetersSum="0.00" meanHaltingDuration="0.00" maxHaltingDuration="0.00" haltingDurationSum="0.00" meanIntervalHaltingDuration="0.00" maxIntervalHaltingDuration="0.00" intervalHaltingDurationSum="0.00" startedHalts="0.00" meanVehicleNumber="3.12" maxVehicleNumber="14" />
   <interval begin="600.00" end="900.00" id="TLSJ0_1_E2CollectorOn_1_0_0" sampledSeconds="367.45" nVehEntered="17" nVehLeft="17" nVehSeen="17" meanSpeed="4.72" meanTimeLoss="14.19" meanOccupancy="5.67" maxOccupancy="49.00" meanMaxJamLengthInVehicles="0.00" meanMaxJamLengthInMeters="0.00" maxJamLengthInVehicles="0" maxJamLengthInMeters="0.00" jamLengthInVehiclesSum="0" jamLengthInMetersSum="0.00" meanHaltingDuration="0.00" maxHaltingDuration="0.00" haltingDurationSum="0.00" meanIntervalHaltingDuration="0.00" maxIntervalHaltingDuration="0.00" intervalHaltingDurationSum="0.00" startedHalts="0.00" meanVehicleNumber="1.25" maxVehicleNumber="11" />
   <interval begin="600.00" end="900.00" id="TLSJ0_1_E2CollectorOn_4_0_0" sampledSeconds="572.42" nVehEntered="10" nVehLeft="10" nVehSeen="10" meanSpeed="1.69" meanTimeLoss="50.22" meanOccupancy="9.73" maxOccupancy="46.55" meanMaxJamLengthInVehicles="0.00" meanMaxJamLengthInMeters="0.00" maxJamLengthInVehicles="0" maxJamLengthInMeters="0.00" jamLengthInVehiclesSum="0" jamLengthInMetersSum="0.00" meanHaltingDuration="0.00" maxHaltingDuration="0.00" haltingDurationSum="0.00" meanIntervalHaltingDuration="0.00" maxIntervalHaltingDuration="0.00" intervalHaltingDurationSum="0.00" startedHalts="0.00" meanVehicleNumber="1.92" maxVehicleNumber="9" />
   <interval begin="600.00" end="900.00" id="TLSJ0_1_E2CollectorOn_3_0_0" sampledSeconds="108.22" nVehEntered="10" nVehLeft="10" nVehSeen="10" meanSpeed="8.89" meanTimeLoss="4.13" meanOccupancy="1.74" maxOccupancy="25.95" meanMaxJamLengthInVehicles="0.00" meanMaxJamLengthInMeters="0.00" maxJamLengthInVehicles="0" maxJamLengthInMeters="0.00" jamLengthInVehiclesSum="0" jamLengthInMetersSum="0.00" meanHaltingDuration="0.00" maxHaltingDuration="0.00" haltingDurationSum="0.00" meanIntervalHaltingDuration="0.00" maxIntervalHaltingDuration="0.00" intervalHaltingDurationSum="0.00" startedHalts="0.00" meanVehicleNumber="0.38" maxVehicleNumber="6" />
   <interval begin="900.00" end="1200.00" id="TLSJ0_1_E2CollectorOn_2_0_0" sampledSeconds="551.23" nVehEntered="13" nVehLeft="13" nVehSeen="13" meanSpeed="2.50" meanTimeLoss="34.42" meanOccupancy="8.49" maxOccupancy="51.75" meanMaxJamLengthInVehicles="0.00" meanMaxJamLengthInMeters="0.00" maxJamLengthInVehicles="0" maxJamLengthInMeters="0.00" jamLengthInVehiclesSum="0" jamLengthInMetersSum="0.00" meanHaltingDuration="0.00" maxHaltingDuration="0.00" haltingDurationSum="0.00" meanIntervalHaltingDuration="0.00" maxIntervalHaltingDuration="0.00" intervalHaltingDurationSum="0.00" startedHalts="0.00" meanVehicleNumber="1.86" maxVehicleNumber="12" />
   <interval begin="900.00" end="1200.00" id="TLSJ0_1_E2CollectorOn_1_0_0" sampledSeconds="351.43" nVehEntered="14" nVehLeft="14" nVehSeen="14" meanSpeed="4.05" meanTimeLoss="17.60" meanOccupancy="5.55" maxOccupancy="58.79" meanMaxJamLengthInVehicles="0.00" meanMaxJamLengthInMeters="0.00" maxJamLengthInVehicles="0" maxJamLengthInMeters="0.00" jamLengthInVehiclesSum="0" jamLengthInMetersSum="0.00" meanHaltingDuration="0.00" maxHaltingDuration="0.00" haltingDurationSum="0.00" meanIntervalHaltingDuration="0.00" maxIntervalHaltingDuration="0.00" intervalHaltingDurationSum="0.00" startedHalts="0.00" meanVehicleNumber="1.20" maxVehicleNumber="12" />
   <interval begin="900.00" end="1200.00" id="TLSJ0_1_E2CollectorOn_4_0_0" sampledSeconds="120.40" nVehEntered="10" nVehLeft="10" nVehSeen="10" meanSpeed="8.02" meanTimeLoss="5.02" meanOccupancy="1.94" maxOccupancy="31.04" meanMaxJamLengthInVehicles="0.00" meanMaxJamLengthInMeters="0.00" maxJamLengthInVehicles="0" maxJamLengthInMeters="0.00" jamLengthInVehiclesSum="0" jamLengthInMetersSum="0.00" meanHaltingDuration="0.00" maxHaltingDuration="0.00" haltingDurationSum="0.00" meanIntervalHaltingDuration="0.00" maxIntervalHaltingDuration="0.00" intervalHaltingDurationSum="0.00" startedHalts="0.00" meanVehicleNumber="0.42" maxVehicleNumber="7" />
   <interval begin="900.00" end="1200.00" id="TLSJ0_1_E2CollectorOn_3_0_0" sampledSeconds="138.55" nVehEntered="15" nVehLeft="15" nVehSeen="15" meanSpeed="10.42" meanTimeLoss="2.24" meanOccupancy="2.20" maxOccupancy="25.95" meanMaxJamLengthInVehicles="0.00" meanMaxJamLengthInMeters="0.00" maxJamLengthInVehicles="0" maxJamLengthInMeters="0.00" jamLengthInVehiclesSum="0" jamLengthInMetersSum="0.00" meanHaltingDuration="0.00" maxHaltingDuration="0.00" haltingDurationSum="0.00" meanIntervalHaltingDuration="0.00" maxIntervalHaltingDuration="0.00" intervalHaltingDurationSum="0.00" startedHalts="0.00" meanVehicleNumber="0.49" maxVehicleNumber="5" />
   <interval begin="1200.00" end="1500.00" id="TLSJ0_1_E2CollectorOn_2_0_0" sampledSeconds="322.91" nVehEntered="20" nVehLeft="20" nVehSeen="20" meanSpeed="6.58" meanTimeLoss="8.08" meanOccupancy="4.78" maxOccupancy="37.64" meanMaxJamLengthInVehicles="0.00" meanMaxJamLengthInMeters="0.00" maxJamLengthInVehicles="0" maxJamLengthInMeters="0.00" jamLengthInVehiclesSum="0" jamLengthInMetersSum="0.00" meanHaltingDuration="0.00" maxHaltingDuration="0.00" haltingDurationSum="0.00" meanIntervalHaltingDuration="0.00" maxIntervalHaltingDuration="0.00" intervalHaltingDurationSum="0.00" startedHalts="0.00" meanVehicleNumber="1.10" maxVehicleNumber="8" />
   <interval begin="1200.00" end="1500.00" id="TLSJ0_1_E2CollectorOn_1_0_0" sampledSeconds="368.28" nVehEntered="19" nVehLeft="19" nVehSeen="19" meanSpeed="5.26" meanTimeLoss="11.61" meanOccupancy="5.74" maxOccupancy="24.50" meanMaxJamLengthInVehicles="0.00" meanMaxJamLengthInMeters="0.00" maxJamLengthInVehicles="0" maxJamLengthInMeters="0.00" jamLengthInVehiclesSum="0" jamLengthInMetersSum="0.00" meanHaltingDuration="0.00" maxHaltingDuration="0.00" haltingDurationSum="0.00" meanIntervalHaltingDuration="0.00" maxIntervalHaltingDuration="0.00" intervalHaltingDurationSum="0.00" startedHalts="0.00" meanVehicleNumber="1.26" maxVehicleNumber="6" />
   <interval begin="1200.00" end="1500.00" id="TLSJ0_1_E2CollectorOn_4_0_0" sampledSeconds="151.15" nVehEntered="5" nVehLeft="5" nVehSeen="5" meanSpeed="3.19" meanTimeLoss="23.35" meanOccupancy="2.53" maxOccupancy="25.86" meanMaxJamLengthInVehicles="0.00" meanMaxJamLengthInMeters="0.00" maxJamLengthInVehicles="0" maxJamLengthInMeters="0.00" jamLengthInVehiclesSum="0" jamLengthInMetersSum="0.00" meanHaltingDuration="0.00" maxHaltingDuration="0.00" haltingDurationSum="0.00" meanIntervalHaltingDuration="0.00" maxIntervalHaltingDuration="0.00" intervalHaltingDurationSum="0.00" startedHalts="0.00" meanVehicleNumber="0.51" maxVehicleNumber="5" />
   <interval begin="1200.00" end="1500.00" id="TLSJ0_1_E2CollectorOn_3_0_0" sampledSeconds="43.82" nVehEntered="5" nVehLeft="5" nVehSeen="5" meanSpeed="10.98" meanTimeLoss="1.10" meanOccupancy="0.70" maxOccupancy="20.76" meanMaxJamLengthInVehicles="0.00" meanMaxJamLengthInMeters="0.00" maxJamLengthInVehicles="0" maxJamLengthInMeters="0.00" jamLengthInVehiclesSum="0" jamLengthInMetersSum="0.00" meanHaltingDuration="0.00" maxHaltingDuration="0.00" haltingDurationSum="0.00" meanIntervalHaltingDuration="0.00" maxIntervalHaltingDuration="0.00" intervalHaltingDurationSum="0.00" startedHalts="0.00" meanVehicleNumber="0.16" maxVehicleNumber="4" />
   <interval begin="1500.00" end="1800.00" id="TLSJ0_1_E2CollectorOn_2_0_0" sampledSeconds="158.07" nVehEntered="15" nVehLeft="15" nVehSeen="15" meanSpeed="10.08" meanTimeLoss="2.73" meanOccupancy="2.28" maxOccupancy="23.52" meanMaxJamLengthInVehicles="0.00" meanMaxJamLengthInMeters="0.00" maxJamLengthInVehicles="0" maxJamLengthInMeters="0.00" jamLengthInVehiclesSum="0" jamLengthInMetersSum="0.00" meanHaltingDuration="0.00" maxHaltingDuration="0.00" haltingDurationSum="0.00" meanIntervalHaltingDuration="0.00" maxIntervalHaltingDuration="0.00" intervalHaltingDurationSum="0.00" startedHalts="0.00" meanVehicleNumber="0.56" maxVehicleNumber="6" />
   <interval begin="1500.00" end="1800.00" id="TLSJ0_1_E2CollectorOn_1_0_0" sampledSeconds="47.98" nVehEntered="3" nVehLeft="3" nVehSeen="3" meanSpeed="6.37" meanTimeLoss="9.07" meanOccupancy="0.74" maxOccupancy="9.80" meanMaxJamLengthInVehicles="0.00" meanMaxJamLengthInMeters="0.00" maxJamLengthInVehicles="0" maxJamLengthInMeters="0.00" jamLengthInVehiclesSum="0" jamLengthInMetersSum="0.00" meanHaltingDuration="0.00" maxHaltingDuration="0.00" haltingDurationSum="0.00" meanIntervalHaltingDuration="0.00" maxIntervalHaltingDuration="0.00" intervalHaltingDurationSum="0.00" startedHalts="0.00" meanVehicleNumber="0.16" maxVehicleNumber="2" />
   <interval begin="1500.00" end="1800.00" id="TLSJ0_1_E2CollectorOn_4_0_0" sampledSeconds="89.71" nVehEntered="9" nVehLeft="9" nVehSeen="9" meanSpeed="9.69" meanTimeLoss="2.61" meanOccupancy="1.42" maxOccupancy="25.86" meanMaxJamLengthInVehicles="0.00" meanMaxJamLengthInMeters="0.00" maxJamLengthInVehicles="0" maxJamLengthInMeters="0.00" jamLengthInVehiclesSum="0" jamLengthInMetersSum="0.00" meanHaltingDuration="0.00" maxHaltingDuration="0.00" haltingDurationSum="0.00" meanIntervalHaltingDuration="0.00" maxIntervalHaltingDuration="0.00" intervalHaltingDurationSum="0.00" startedHalts="0.00" meanVehicleNumber="0.31" maxVehicleNumber="6" />
   <interval begin="1500.00" end="1800.00" id="TLSJ0_1_E2CollectorOn_3_0_0" sampledSeconds="619.37" nVehEntered="18" nVehLeft="18" nVehSeen="18" meanSpeed="2.80" meanTimeLoss="27.49" meanOccupancy="10.47" maxOccupancy="67.48" meanMaxJamLengthInVehicles="0.00" meanMaxJamLengthInMeters="0.00" maxJamLengthInVehicles="0" maxJamLengthInMeters="0.00" jamLengthInVehiclesSum="0" jamLengthInMetersSum="0.00" meanHaltingDuration="0.00" maxHaltingDuration="0.00" haltingDurationSum="0.00" meanIntervalHaltingDuration="0.00" maxIntervalHaltingDuration="0.00" intervalHaltingDurationSum="0.00" startedHalts="0.00" meanVehicleNumber="2.10" maxVehicleNumber="13" />
   <interval begin="1800.00" end="2100.00" id="TLSJ0_1_E2CollectorOn_2_0_0" sampledSeconds="336.46" nVehEntered="20" nVehLeft="20" nVehSeen="20" meanSpeed="6.29" meanTimeLoss="9.14" meanOccupancy="5.06" maxOccupancy="42.34" meanMaxJamLengthInVehicles="0.00" meanMaxJamLengthInMeters="0.00" maxJamLengthInVehicles="0" maxJamLengthInMeters="0.00" jamLengthInVehiclesSum="0" jamLengthInMetersSum="0.00" meanHaltingDuration="0.00" maxHaltingDuration="0.00" haltingDurationSum="0.00" meanIntervalHaltingDuration="0.00" maxIntervalHaltingDuration="0.00" intervalHaltingDurationSum="0.00" startedHalts="0.00" meanVehicleNumber="1.15" maxVehicleNumber="10" />
   <interval begin="1800.00" end="2100.00" id="TLSJ0_1_E2CollectorOn_1_0_0" sampledSeconds="265.58" nVehEntered="9" nVehLeft="9" nVehSeen="9" meanSpeed="3.45" meanTimeLoss="21.74" meanOccupancy="4.22" maxOccupancy="34.30" meanMaxJamLengthInVehicles="0.00" meanMaxJamLengthInMeters="0.00" maxJamLengthInVehicles="0" maxJamLengthInMeters="0.00" jamLengthInVehiclesSum="0" jamLengthInMetersSum="0.00" meanHaltingDuration="0.00" maxHaltingDuration="0.00" haltingDurationSum="0.00" meanIntervalHaltingDuration="0.00" maxIntervalHaltingDuration="0.00" intervalHaltingDurationSum="0.00" startedHalts="0.00" meanVehicleNumber="0.90" maxVehicleNumber="7" />
   <interval begin="1800.00" end="2100.00" id="TLSJ0_1_E2CollectorOn_4_0_0" sampledSeconds="369.70" nVehEntered="15" nVehLeft="15" nVehSeen="15" meanSpeed="3.92" meanTimeLoss="17.63" meanOccupancy="6.17" maxOccupancy="62.07" meanMaxJamLengthInVehicles="0.00" meanMaxJamLengthInMeters="0.00" maxJamLengthInVehicles="0" maxJamLengthInMeters="0.00" jamLengthInVehiclesSum="0" jamLengthInMetersSum="0.00" meanHaltingDuration="0.00" maxHaltingDuration="0.00" haltingDurationSum="0.00" meanIntervalHaltingDuration="0.00" maxIntervalHaltingDuration="0.00" intervalHaltingDurationSum="0.00" startedHalts="0.00" meanVehicleNumber="1.26" maxVehicleNumber="12" />
   <interval begin="1800.00" end="2100.00" id="TLSJ0_1_E2CollectorOn_3_0_0" sampledSeconds="188.86" nVehEntered="12" nVehLeft="12" nVehSeen="12" meanSpeed="6.11" meanTimeLoss="8.01" meanOccupancy="3.04" maxOccupancy="36.33" meanMaxJamLengthInVehicles="0.00" meanMaxJamLengthInMeters="0.00" maxJamLengthInVehicles="0" maxJamLengthInMeters="0.00" jamLengthInVehiclesSum="0" jamLengthInMetersSum="0.00" meanHaltingDuration="0.00" maxHaltingDuration="0.00" haltingDurationSum="0.00" meanIntervalHaltingDuration="0.00" maxIntervalHaltingDuration="0.00" intervalHaltingDurationSum="0.00" startedHalts="0.00" meanVehicleNumber="0.65" maxVehicleNumber="8" />
   <interval begin="2100.00" end="2400.00" id="TLSJ0_1_E2CollectorOn_2_0_0" sampledSeconds="772.18" nVehEntered="14" nVehLeft="14" nVehSeen="14" meanSpeed="1.93" meanTimeLoss="47.07" meanOccupancy="11.78" maxOccupancy="62.27" meanMaxJamLengthInVehicles="0.00" meanMaxJamLengthInMeters="0.00" maxJamLengthInVehicles="0" maxJamLengthInMeters="0.00" jamLengthInVehiclesSum="0" jamLengthInMetersSum="0.00" meanHaltingDuration="0.00" maxHaltingDuration="0.00" haltingDurationSum="0.00" meanIntervalHaltingDuration="0.00" maxIntervalHaltingDuration="0.00" intervalHaltingDurationSum="0.00" startedHalts="0.00" meanVehicleNumber="2.60" maxVehicleNumber="14" />
   <interval begin="2100.00" end="2400.00" id="TLSJ0_1_E2CollectorOn_1_0_0" sampledSeconds="228.75" nVehEntered="15" nVehLeft="15" nVehSeen="15" meanSpeed="6.69" meanTimeLoss="8.08" meanOccupancy="3.43" maxOccupancy="34.30" meanMaxJamLengthInVehicles="0.00" meanMaxJamLengthInMeters="0.00" maxJamLengthInVehicles="0" maxJamLengthInMeters="0.00" jamLengthInVehiclesSum="0" jamLengthInMetersSum="0.00" meanHaltingDuration="0.00" maxHaltingDuration="0.00" haltingDurationSum="0.00" meanIntervalHaltingDuration="0.00" maxIntervalHaltingDuration="0.00" intervalHaltingDurationSum="0.00" startedHalts="0.00" meanVehicleNumber="0.79" maxVehicleNumber="8" />
   <interval begin="2100.00" end="2400.00" id="TLSJ0_1_E2CollectorOn_4_0_0" sampledSeconds="118.05" nVehEntered="12" nVehLeft="12" nVehSeen="12" meanSpeed="9.82" meanTimeLoss="2.89" meanOccupancy="1.87" maxOccupancy="25.86" meanMaxJamLengthInVehicles="0.00" meanMaxJamLengthInMeters="0.00" maxJamLengthInVehicles="0" maxJamLengthInMeters="0.00" jamLengthInVehiclesSum="0" jamLengthInMetersSum="0.00" meanHaltingDuration="0.00" maxHaltingDuration="0.00" haltingDurationSum="0.00" meanIntervalHaltingDuration="0.00" maxIntervalHaltingDuration="0.00" intervalHaltingDurationSum="0.00" startedHalts="0.00" meanVehicleNumber="0.41" maxVehicleNumber="6" />
   <interval begin="2100.00" end="2400.00" id="TLSJ0_1_E2CollectorOn_3_0_0" sampledSeconds="218.10" nVehEntered="13" nVehLeft="13" nVehSeen="13" meanSpeed="5.74" meanTimeLoss="9.67" meanOccupancy="3.61" maxOccupancy="25.95" meanMaxJamLengthInVehicles="0.00" meanMaxJamLengthInMeters="0.00" maxJamLengthInVehicles="0" maxJamLengthInMeters="0.00" jamLengthInVehiclesSum="0" jamLengthInMetersSum="0.00" meanHaltingDuration="0.00" maxHaltingDuration="0.00" haltingDurationSum="0.00" meanIntervalHaltingDuration="0.00" maxIntervalHaltingDuration="0.00" intervalHaltingDurationSum="0.00" startedHalts="0.00" meanVehicleNumber="0.75" maxVehicleNumber="5" />
   <interval begin="2400.00" end="2700.00" id="TLSJ0_1_E2CollectorOn_2_0_0" sampledSeconds="193.90" nVehEntered="17" nVehLeft="17" nVehSeen="17" meanSpeed="9.31" meanTimeLoss="3.50" meanOccupancy="2.84" maxOccupancy="28.23" meanMaxJamLengthInVehicles="0.00" meanMaxJamLengthInMeters="0.00" maxJamLengthInVehicles="0" maxJamLengthInMeters="0.00" jamLengthInVehiclesSum="0" jamLengthInMetersSum="0.00" meanHaltingDuration="0.00" maxHaltingDuration="0.00" haltingDurationSum="0.00" meanIntervalHaltingDuration="0.00" maxIntervalHaltingDuration="0.00" intervalHaltingDurationSum="0.00" startedHalts="0.00" meanVehicleNumber="0.67" maxVehicleNumber="6" />
   <interval begin="2400.00" end="2700.00" id="TLSJ0_1_E2CollectorOn_1_0_0" sampledSeconds="816.23" nVehEntered="16" nVehLeft="16" nVehSeen="16" meanSpeed="2.00" meanTimeLoss="43.36" meanOccupancy="12.98" maxOccupancy="63.69" meanMaxJamLengthInVehicles="0.00" meanMaxJamLengthInMeters="0.00" maxJamLengthInVehicles="0" maxJamLengthInMeters="0.00" jamLengthInVehiclesSum="0" jamLengthInMetersSum="0.00" meanHaltingDuration="0.00" maxHaltingDuration="0.00" haltingDurationSum="0.00" meanIntervalHaltingDuration="0.00" maxIntervalHaltingDuration="0.00" intervalHaltingDurationSum="0.00" startedHalts="0.00" meanVehicleNumber="2.74" maxVehicleNumber="13" />
   <interval begin="2400.00" end="2700.00" id="TLSJ0_1_E2CollectorOn_4_0_0" sampledSeconds="39.83" nVehEntered="5" nVehLeft="5" nVehSeen="5" meanSpeed="12.12" meanTimeLoss="1.08" meanOccupancy="0.62" maxOccupancy="20.69" meanMaxJamLengthInVehicles="0.00" meanMaxJamLengthInMeters="0.00" maxJamLengthInVehicles="0" maxJamLengthInMeters="0.00" jamLengthInVehiclesSum="0" jamLengthInMetersSum="0.00" meanHaltingDuration="0.00" maxHaltingDuration="0.00" haltingDurationSum="0.00" meanIntervalHaltingDuration="0.00" maxIntervalHaltingDuration="0.00" intervalHaltingDurationSum="0.00" startedHalts="0.00" meanVehicleNumber="0.14" maxVehicleNumber="4" />
   <interval begin="2400.00" end="2700.00" id="TLSJ0_1_E2CollectorOn_3_0_0" sampledSeconds="393.51" nVehEntered="7" nVehLeft="7" nVehSeen="7" meanSpeed="1.71" meanTimeLoss="48.73" meanOccupancy="6.29" maxOccupancy="36.33" meanMaxJamLengthInVehicles="0.00" meanMaxJamLengthInMeters="0.00" maxJamLengthInVehicles="0" maxJamLengthInMeters="0.00" jamLengthInVehiclesSum="0" jamLengthInMetersSum="0.00" meanHaltingDuration="0.00" maxHaltingDuration="0.00" haltingDurationSum="0.00" meanIntervalHaltingDuration="0.00" maxIntervalHaltingDuration="0.00" intervalHaltingDurationSum="0.00" startedHalts="0.00" meanVehicleNumber="1.32" maxVehicleNumber="7" />
   <interval begin="2700.00" end="3000.00" id="TLSJ0_1_E2CollectorOn_2_0_0" sampledSeconds="257.34" nVehEntered="9" nVehLeft="9" nVehSeen="9" meanSpeed="3.71" meanTimeLoss="21.34" meanOccupancy="3.93" maxOccupancy="37.64" meanMaxJamLengthInVehicles="0.00" meanMaxJamLengthInMeters="0.00" maxJamLengthInVehicles="0" maxJamLengthInMeters="0.00" jamLengthInVehiclesSum="0" jamLengthInMetersSum="0.00" meanHaltingDuration="0.00" maxHaltingDuration="0.00" haltingDurationSum="0.00" meanIntervalHaltingDuration="0.00" maxIntervalHaltingDuration="0.00" intervalHaltingDurationSum="0.00" startedHalts="0.00" meanVehicleNumber="0.87" maxVehicleNumber="8" />
   <interval begin="2700.00" end="3000.00" id="TLSJ0_1_E2CollectorOn_1_0_0" sampledSeconds="290.61" nVehEntered="14" nVehLeft="14" nVehSeen="14" meanSpeed="4.91" meanTimeLoss="13.50" meanOccupancy="4.55" maxOccupancy="49.00" meanMaxJamLengthInVehicles="0.00" meanMaxJamLengthInMeters="0.00" maxJamLengthInVehicles="0" maxJamLengthInMeters="0.00" jamLengthInVehiclesSum="0" jamLengthInMetersSum="0.00" meanHaltingDuration="0.00" maxHaltingDuration="0.00" haltingDurationSum="0.00" meanIntervalHaltingDuration="0.00" maxIntervalHaltingDuration="0.00" intervalHaltingDurationSum="0.00" startedHalts="0.00" meanVehicleNumber="0.99" maxVehicleNumber="10" />
   <interval begin="2700.00" end="3000.00" id="TLSJ0_1_E2CollectorOn_4_0_0" sampledSeconds="78.38" nVehEntered="8" nVehLeft="8" nVehSeen="8" meanSpeed="9.86" meanTimeLoss="2.54" meanOccupancy="1.24" maxOccupancy="25.86" meanMaxJamLengthInVehicles="0.00" meanMaxJamLengthInMeters="0.00" maxJamLengthInVehicles="0" maxJamLengthInMeters="0.00" jamLengthInVehiclesSum="0" jamLengthInMetersSum="0.00" meanHaltingDuration="0.00" maxHaltingDuration="0.00" haltingDurationSum="0.00" meanIntervalHaltingDuration="0.00" maxIntervalHaltingDuration="0.00" intervalHaltingDurationSum="0.00" startedHalts="0.00" meanVehicleNumber="0.28" maxVehicleNumber="6" />
   <interval begin="2700.00" end="3000.00" id="TLSJ0_1_E2CollectorOn_3_0_0" sampledSeconds="34.92" nVehEntered="3" nVehLeft="3" nVehSeen="3" meanSpeed="8.27" meanTimeLoss="4.88" meanOccupancy="0.48" maxOccupancy="15.57" meanMaxJamLengthInVehicles="0.00" meanMaxJamLengthInMeters="0.00" maxJamLengthInVehicles="0" maxJamLengthInMeters="0.00" jamLengthInVehiclesSum="0" jamLengthInMetersSum="0.00" meanHaltingDuration="0.00" maxHaltingDuration="0.00" haltingDurationSum="0.00" meanIntervalHaltingDuration="0.00" maxIntervalHaltingDuration="0.00" intervalHaltingDurationSum="0.00" startedHalts="0.00" meanVehicleNumber="0.12" maxVehicleNumber="3" />
   <interval begin="3000.00" end="3300.00" id="TLSJ0_1_E2CollectorOn_2_0_0" sampledSeconds="283.04" nVehEntered="17" nVehLeft="17" nVehSeen="17" meanSpeed="6.38" meanTimeLoss="8.57" meanOccupancy="4.22" maxOccupancy="32.93" meanMaxJamLengthInVehicles="0.00" meanMaxJamLengthInMeters="0.00" maxJamLengthInVehicles="0" maxJamLengthInMeters="0.00" jamLengthInVehiclesSum="0" jamLengthInMetersSum="0.00" meanHaltingDuration="0.00" maxHaltingDuration="0.00" haltingDurationSum="0.00" meanIntervalHaltingDuration="0.00" maxIntervalHaltingDuration="0.00" intervalHaltingDurationSum="0.00" startedHalts="0.00" meanVehicleNumber="0.97" maxVehicleNumber="7" />
   <interval begin="3000.00" end="3300.00" id="TLSJ0_1_E2CollectorOn_1_0_0" sampledSeconds="671.83" nVehEntered="15" nVehLeft="15" nVehSeen="15" meanSpeed="2.28" meanTimeLoss="37.10" meanOccupancy="10.78" maxOccupancy="63.69" meanMaxJamLengthInVehicles="0.00" meanMaxJamLengthInMeters="0.00" maxJamLengthInVehicles="0" maxJamLengthInMeters="0.00" jamLengthInVehiclesSum="0" jamLengthInMetersSum="0.00" meanHaltingDuration="0.00" maxHaltingDuration="0.00" haltingDurationSum="0.00" meanIntervalHaltingDuration="0.00" maxIntervalHaltingDuration="0.00" intervalHaltingDurationSum="0.00" startedHalts="0.00" meanVehicleNumber="2.26" maxVehicleNumber="13" />
   <interval begin="3000.00" end="3300.00" id="TLSJ0_1_E2CollectorOn_4_0_0" sampledSeconds="99.23" nVehEntered="10" nVehLeft="10" nVehSeen="10" meanSpeed="9.73" meanTimeLoss="2.67" meanOccupancy="1.58" maxOccupancy="25.86" meanMaxJamLengthInVehicles="0.00" meanMaxJamLengthInMeters="0.00" maxJamLengthInVehicles="0" maxJamLengthInMeters="0.00" jamLengthInVehiclesSum="0" jamLengthInMetersSum="0.00" meanHaltingDuration="0.00" maxHaltingDuration="0.00" haltingDurationSum="0.00" meanIntervalHaltingDuration="0.00" maxIntervalHaltingDuration="0.00" intervalHaltingDurationSum="0.00" startedHalts="0.00" meanVehicleNumber="0.35" maxVehicleNumber="6" />
   <interval begin="3000.00" end="3300.00" id="TLSJ0_1_E2CollectorOn_3_0_0" sampledSeconds="341.11" nVehEntered="14" nVehLeft="14" nVehSeen="14" meanSpeed="3.95" meanTimeLoss="17.23" meanOccupancy="5.33" maxOccupancy="34.94" meanMaxJamLengthInVehicles="0.00" meanMaxJamLengthInMeters="0.00" maxJamLengthInVehicles="0" maxJamLengthInMeters="0.00" jamLengthInVehiclesSum="0" jamLengthInMetersSum="0.00" meanHaltingDuration="0.00" maxHaltingDuration="0.00" haltingDurationSum="0.00" meanIntervalHaltingDuration="0.00" maxIntervalHaltingDuration="0.00" intervalHaltingDurationSum="0.00" startedHalts="0.00" meanVehicleNumber="1.16" maxVehicleNumber="7" />