<?xml version="1.0" encoding="UTF-8"?>

<!-- generated on 2022-06-22 13:57:36 by Eclipse SUMO sumo Version 1.12.0
<configuration xmlns:xsi="http://www.w3.org/2001/XMLSchema-instance" xsi:noNamespaceSchemaLocation="http://sumo.dlr.de/xsd/sumoConfiguration.xsd">

    <input>
        <net-file value="mosas_kilis_static.net.xml"/>
        <route-files value="episode_routes.rou.xml"/>
    </input>

    <output>
        <tripinfo-output value="tripinfo.xml"/>
    </output>

    <processing>
        <time-to-teleport value="-1"/>
        <waiting-time-memory value="10000"/>
        <max-depart-delay value="100000"/>
    </processing>

    <report>
        <no-warnings value="true"/>
    </report>

    <traci_server>
        <remote-port value="57801"/>
    </traci_server>

    <random_number>
        <random value="true"/>
    </random_number>

</configuration>
-->

<tripinfos xmlns:xsi="http://www.w3.org/2001/XMLSchema-instance" xsi:noNamespaceSchemaLocation="http://sumo.dlr.de/xsd/tripinfo_file.xsd">
    <tripinfo id="8" depart="22.00" departLane="3_0_0" departPos="5.10" departSpeed="12.82" departDelay="0.00" arrival="43.00" arrivalLane="2_1_0" arrivalPos="106.28" arrivalSpeed="11.52" duration="21.00" routeLength="211.90" waitingTime="0.00" waitingCount="0" stopTime="0.00" timeLoss="3.56" rerouteNo="0" devices="tripinfo_8" vType="DEFAULT_VEHTYPE" speedFactor="0.92" vaporized=""/>
    <tripinfo id="9" depart="23.00" departLane="3_0_0" departPos="5.10" departSpeed="9.06" departDelay="1.00" arrival="45.00" arrivalLane="2_1_0" arrivalPos="106.28" arrivalSpeed="12.06" duration="22.00" routeLength="211.90" waitingTime="0.00" waitingCount="0" stopTime="0.00" timeLoss="5.07" rerouteNo="0" devices="tripinfo_9" vType="DEFAULT_VEHTYPE" speedFactor="0.95" vaporized=""/>
    <tripinfo id="13" depart="30.00" departLane="1_0_0" departPos="5.10" departSpeed="13.89" departDelay="0.00" arrival="49.00" arrivalLane="2_1_0" arrivalPos="106.28" arrivalSpeed="12.87" duration="19.00" routeLength="212.35" waitingTime="0.00" waitingCount="0" stopTime="0.00" timeLoss="3.27" rerouteNo="0" devices="tripinfo_13" vType="DEFAULT_VEHTYPE" speedFactor="1.00" vaporized=""/>
    <tripinfo id="14" depart="31.00" departLane="1_0_0" departPos="5.10" departSpeed="10.14" departDelay="1.00" arrival="53.00" arrivalLane="2_1_0" arrivalPos="106.28" arrivalSpeed="12.26" duration="22.00" routeLength="212.35" waitingTime="0.00" waitingCount="0" stopTime="0.00" timeLoss="3.95" rerouteNo="0" devices="tripinfo_14" vType="DEFAULT_VEHTYPE" speedFactor="0.93" vaporized=""/>
    <tripinfo id="15" depart="32.00" departLane="1_0_0" departPos="5.10" departSpeed="5.83" departDelay="2.00" arrival="56.00" arrivalLane="2_1_0" arrivalPos="106.28" arrivalSpeed="12.11" duration="24.00" routeLength="212.35" waitingTime="0.00" waitingCount="0" stopTime="0.00" timeLoss="5.70" rerouteNo="0" devices="tripinfo_15" vType="DEFAULT_VEHTYPE" speedFactor="0.93" vaporized=""/>
    <tripinfo id="16" depart="34.00" departLane="1_0_0" departPos="5.10" departSpeed="6.75" departDelay="4.00" arrival="57.00" arrivalLane="2_1_0" arrivalPos="106.28" arrivalSpeed="12.55" duration="23.00" routeLength="212.35" waitingTime="0.00" waitingCount="0" stopTime="0.00" timeLoss="6.18" rerouteNo="0" devices="tripinfo_16" vType="DEFAULT_VEHTYPE" speedFactor="0.93" vaporized=""/>
    <tripinfo id="17" depart="36.00" departLane="1_0_0" departPos="5.10" departSpeed="6.87" departDelay="6.00" arrival="61.00" arrivalLane="2_1_0" arrivalPos="106.28" arrivalSpeed="11.35" duration="25.00" routeLength="212.35" waitingTime="0.00" waitingCount="0" stopTime="0.00" timeLoss="6.38" rerouteNo="0" devices="tripinfo_17" vType="DEFAULT_VEHTYPE" speedFactor="0.91" vaporized=""/>
    <tripinfo id="10" depart="24.00" departLane="3_0_0" departPos="5.10" departSpeed="4.57" departDelay="2.00" arrival="63.00" arrivalLane="2_1_0" arrivalPos="106.28" arrivalSpeed="13.98" duration="39.00" routeLength="211.90" waitingTime="12.00" waitingCount="1" stopTime="0.00" timeLoss="22.81" rerouteNo="0" devices="tripinfo_10" vType="DEFAULT_VEHTYPE" speedFactor="1.06" vaporized=""/>
    <tripinfo id="0" depart="2.00" departLane="4_0_0" departPos="5.10" departSpeed="14.37" departDelay="0.00" arrival="64.00" arrivalLane="1_1_0" arrivalPos="102.05" arrivalSpeed="13.66" duration="62.00" routeLength="203.19" waitingTime="40.00" waitingCount="1" stopTime="0.00" timeLoss="46.42" rerouteNo="0" devices="tripinfo_0" vType="DEFAULT_VEHTYPE" speedFactor="1.03" vaporized=""/>
    <tripinfo id="1" depart="3.00" departLane="4_0_0" departPos="5.10" departSpeed="10.61" departDelay="1.00" arrival="65.00" arrivalLane="1_1_0" arrivalPos="102.05" arrivalSpeed="14.24" duration="62.00" routeLength="203.19" waitingTime="40.00" waitingCount="1" stopTime="0.00" timeLoss="48.75" rerouteNo="0" devices="tripinfo_1" vType="DEFAULT_VEHTYPE" speedFactor="1.15" vaporized=""/>
    <tripinfo id="2" depart="4.00" departLane="4_0_0" departPos="5.10" departSpeed="6.55" departDelay="2.00" arrival="69.00" arrivalLane="1_1_0" arrivalPos="102.05" arrivalSpeed="12.33" duration="65.00" routeLength="203.19" waitingTime="39.00" waitingCount="1" stopTime="0.00" timeLoss="47.83" rerouteNo="0" devices="tripinfo_2" vType="DEFAULT_VEHTYPE" speedFactor="0.91" vaporized=""/>
    <tripinfo id="3" depart="6.00" departLane="4_0_0" departPos="5.10" departSpeed="7.82" departDelay="4.00" arrival="72.00" arrivalLane="1_1_0" arrivalPos="102.05" arrivalSpeed="11.99" duration="66.00" routeLength="203.19" waitingTime="38.00" waitingCount="1" stopTime="0.00" timeLoss="48.87" rerouteNo="0" devices="tripinfo_3" vType="DEFAULT_VEHTYPE" speedFactor="0.93" vaporized=""/>
    <tripinfo id="4" depart="10.00" departLane="4_0_0" departPos="5.10" departSpeed="12.64" departDelay="0.00" arrival="74.00" arrivalLane="2_1_0" arrivalPos="106.28" arrivalSpeed="12.15" duration="64.00" routeLength="212.66" waitingTime="36.00" waitingCount="1" stopTime="0.00" timeLoss="47.00" rerouteNo="0" devices="tripinfo_4" vType="DEFAULT_VEHTYPE" speedFactor="0.91" vaporized=""/>
    <tripinfo id="26" depart="47.00" departLane="2_0_0" departPos="5.10" departSpeed="15.48" departDelay="0.00" arrival="77.00" arrivalLane="1_1_0" arrivalPos="102.05" arrivalSpeed="14.32" duration="30.00" routeLength="217.48" waitingTime="9.00" waitingCount="1" stopTime="0.00" timeLoss="14.51" rerouteNo="0" devices="tripinfo_26" vType="DEFAULT_VEHTYPE" speedFactor="1.11" vaporized=""/>
    <tripinfo id="18" depart="38.00" departLane="1_0_0" departPos="5.10" departSpeed="7.57" departDelay="8.00" arrival="79.00" arrivalLane="2_1_0" arrivalPos="106.28" arrivalSpeed="11.14" duration="41.00" routeLength="212.35" waitingTime="14.00" waitingCount="1" stopTime="0.00" timeLoss="22.59" rerouteNo="0" devices="tripinfo_18" vType="DEFAULT_VEHTYPE" speedFactor="0.87" vaporized=""/>
    <tripinfo id="19" depart="40.00" departLane="1_0_0" departPos="5.10" departSpeed="7.66" departDelay="10.00" arrival="81.00" arrivalLane="2_1_0" arrivalPos="106.28" arrivalSpeed="13.17" duration="41.00" routeLength="212.35" waitingTime="12.00" waitingCount="1" stopTime="0.00" timeLoss="24.29" rerouteNo="0" devices="tripinfo_19" vType="DEFAULT_VEHTYPE" speedFactor="1.01" vaporized=""/>
    <tripinfo id="20" depart="42.00" departLane="1_0_0" departPos="5.10" departSpeed="8.47" departDelay="12.00" arrival="83.00" arrivalLane="2_1_0" arrivalPos="106.28" arrivalSpeed="13.17" duration="41.00" routeLength="212.35" waitingTime="12.00" waitingCount="1" stopTime="0.00" timeLoss="25.02" rerouteNo="0" devices="tripinfo_20" vType="DEFAULT_VEHTYPE" speedFactor="1.03" vaporized=""/>
    <tripinfo id="21" depart="43.00" departLane="1_0_0" departPos="5.10" departSpeed="3.59" departDelay="13.00" arrival="85.00" arrivalLane="2_1_0" arrivalPos="106.28" arrivalSpeed="13.96" duration="42.00" routeLength="212.35" waitingTime="11.00" waitingCount="1" stopTime="0.00" timeLoss="26.21" rerouteNo="0" devices="tripinfo_21" vType="DEFAULT_VEHTYPE" speedFactor="1.02" vaporized=""/>
    <tripinfo id="22" depart="45.00" departLane="1_0_0" departPos="5.10" departSpeed="1.34" departDelay="15.00" arrival="87.00" arrivalLane="2_1_0" arrivalPos="106.28" arrivalSpeed="14.66" duration="42.00" routeLength="212.35" waitingTime="9.00" waitingCount="1" stopTime="0.00" timeLoss="26.97" rerouteNo="0" devices="tripinfo_22" vType="DEFAULT_VEHTYPE" speedFactor="1.10" vaporized=""/>
    <tripinfo id="11" depart="26.00" departLane="3_0_0" departPos="5.10" departSpeed="4.85" departDelay="4.00" arrival="91.00" arrivalLane="2_1_0" arrivalPos="106.28" arrivalSpeed="12.85" duration="65.00" routeLength="211.90" waitingTime="30.00" waitingCount="3" stopTime="0.00" timeLoss="47.58" rerouteNo="0" devices="tripinfo_11" vType="DEFAULT_VEHTYPE" speedFactor="0.95" vaporized=""/>
    <tripinfo id="12" depart="28.00" departLane="3_0_0" departPos="5.10" departSpeed="3.54" departDelay="4.00" arrival="92.00" arrivalLane="4_1_0" arrivalPos="96.66" arrivalSpeed="12.93" duration="64.00" routeLength="196.93" waitingTime="29.00" waitingCount="3" stopTime="0.00" timeLoss="48.13" rerouteNo="0" devices="tripinfo_12" vType="DEFAULT_VEHTYPE" speedFactor="0.94" vaporized=""/>
    <tripinfo id="44" depart="65.00" departLane="3_0_0" departPos="5.10" departSpeed="12.83" departDelay="0.00" arrival="95.00" arrivalLane="1_1_0" arrivalPos="102.05" arrivalSpeed="11.61" duration="30.00" routeLength="207.89" waitingTime="4.00" waitingCount="1" stopTime="0.00" timeLoss="13.19" rerouteNo="0" devices="tripinfo_44" vType="DEFAULT_VEHTYPE" speedFactor="0.92" vaporized=""/>
    <tripinfo id="45" depart="66.00" departLane="3_0_0" departPos="5.10" departSpeed="9.66" departDelay="1.00" arrival="97.00" arrivalLane="1_1_0" arrivalPos="102.05" arrivalSpeed="14.10" duration="31.00" routeLength="207.89" waitingTime="4.00" waitingCount="1" stopTime="0.00" timeLoss="15.89" rerouteNo="0" devices="tripinfo_45" vType="DEFAULT_VEHTYPE" speedFactor="1.06" vaporized=""/>
    <tripinfo id="46" depart="67.00" departLane="3_0_0" departPos="5.10" departSpeed="4.84" departDelay="2.00" arrival="98.00" arrivalLane="1_1_0" arrivalPos="102.05" arrivalSpeed="14.00" duration="31.00" routeLength="207.89" waitingTime="3.00" waitingCount="1" stopTime="0.00" timeLoss="16.93" rerouteNo="0" devices="tripinfo_46" vType="DEFAULT_VEHTYPE" speedFactor="1.08" vaporized=""/>
    <tripinfo id="47" depart="69.00" departLane="3_0_0" departPos="5.10" departSpeed="3.69" departDelay="4.00" arrival="100.00" arrivalLane="1_1_0" arrivalPos="102.05" arrivalSpeed="13.24" duration="31.00" routeLength="207.89" waitingTime="3.00" waitingCount="1" stopTime="0.00" timeLoss="16.18" rerouteNo="0" devices="tripinfo_47" vType="DEFAULT_VEHTYPE" speedFactor="1.04" vaporized=""/>
    <tripinfo id="48" depart="71.00" departLane="3_0_0" departPos="5.10" departSpeed="1.65" departDelay="6.00" arrival="102.00" arrivalLane="1_1_0" arrivalPos="102.05" arrivalSpeed="12.65" duration="31.00" routeLength="207.89" waitingTime="2.00" waitingCount="1" stopTime="0.00" timeLoss="15.32" rerouteNo="0" devices="tripinfo_48" vType="DEFAULT_VEHTYPE" speedFactor="0.98" vaporized=""/>
    <tripinfo id="49" depart="74.00" departLane="3_0_0" departPos="5.10" departSpeed="3.36" departDelay="9.00" arrival="104.00" arrivalLane="1_1_0" arrivalPos="102.05" arrivalSpeed="13.32" duration="30.00" routeLength="207.89" waitingTime="2.00" waitingCount="1" stopTime="0.00" timeLoss="14.60" rerouteNo="0" devices="tripinfo_49" vType="DEFAULT_VEHTYPE" speedFactor="1.02" vaporized=""/>
    <tripinfo id="50" depart="77.00" departLane="3_0_0" departPos="5.10" departSpeed="6.78" departDelay="12.00" arrival="106.00" arrivalLane="1_1_0" arrivalPos="102.05" arrivalSpeed="11.70" duration="29.00" routeLength="207.89" waitingTime="0.00" waitingCount="0" stopTime="0.00" timeLoss="11.92" rerouteNo="0" devices="tripinfo_50" vType="DEFAULT_VEHTYPE" speedFactor="0.88" vaporized=""/>
    <tripinfo id="51" depart="79.00" departLane="3_0_0" departPos="5.10" departSpeed="7.41" departDelay="14.00" arrival="108.00" arrivalLane="1_1_0" arrivalPos="102.05" arrivalSpeed="13.18" duration="29.00" routeLength="207.89" waitingTime="0.00" waitingCount="0" stopTime="0.00" timeLoss="12.87" rerouteNo="0" devices="tripinfo_51" vType="DEFAULT_VEHTYPE" speedFactor="0.95" vaporized=""/>
    <tripinfo id="52" depart="81.00" departLane="3_0_0" departPos="5.10" departSpeed="6.78" departDelay="16.00" arrival="110.00" arrivalLane="1_1_0" arrivalPos="102.05" arrivalSpeed="14.49" duration="29.00" routeLength="207.89" waitingTime="0.00" waitingCount="0" stopTime="0.00" timeLoss="14.25" rerouteNo="0" devices="tripinfo_52" vType="DEFAULT_VEHTYPE" speedFactor="1.07" vaporized=""/>
    <tripinfo id="23" depart="48.00" departLane="1_0_0" departPos="5.10" departSpeed="1.17" departDelay="8.00" arrival="113.00" arrivalLane="4_1_0" arrivalPos="96.66" arrivalSpeed="11.80" duration="65.00" routeLength="208.05" waitingTime="26.00" waitingCount="2" stopTime="0.00" timeLoss="47.87" rerouteNo="0" devices="tripinfo_23" vType="DEFAULT_VEHTYPE" speedFactor="0.92" vaporized=""/>
    <tripinfo id="24" depart="51.00" departLane="1_0_0" departPos="5.10" departSpeed="1.40" departDelay="11.00" arrival="115.00" arrivalLane="4_1_0" arrivalPos="96.66" arrivalSpeed="14.01" duration="64.00" routeLength="208.05" waitingTime="25.00" waitingCount="2" stopTime="0.00" timeLoss="49.21" rerouteNo="0" devices="tripinfo_24" vType="DEFAULT_VEHTYPE" speedFactor="1.09" vaporized=""/>
    <tripinfo id="25" depart="54.00" departLane="1_0_0" departPos="5.10" departSpeed="2.38" departDelay="14.00" arrival="117.00" arrivalLane="4_1_0" arrivalPos="96.66" arrivalSpeed="12.86" duration="63.00" routeLength="208.05" waitingTime="24.00" waitingCount="2" stopTime="0.00" timeLoss="47.09" rerouteNo="0" devices="tripinfo_25" vType="DEFAULT_VEHTYPE" speedFactor="1.00" vaporized=""/>
    <tripinfo id="53" depart="66.00" departLane="1_0_0" departPos="5.10" departSpeed="14.78" departDelay="0.00" arrival="119.00" arrivalLane="3_1_0" arrivalPos="96.33" arrivalSpeed="13.94" duration="53.00" routeLength="207.83" waitingTime="18.00" waitingCount="2" stopTime="0.00" timeLoss="38.20" rerouteNo="0" devices="tripinfo_53" vType="DEFAULT_VEHTYPE" speedFactor="1.06" vaporized=""/>
    <tripinfo id="54" depart="67.00" departLane="1_0_0" departPos="5.10" departSpeed="11.56" departDelay="1.00" arrival="120.00" arrivalLane="3_1_0" arrivalPos="96.33" arrivalSpeed="15.30" duration="53.00" routeLength="207.83" waitingTime="19.00" waitingCount="2" stopTime="0.00" timeLoss="40.61" rerouteNo="0" devices="tripinfo_54" vType="DEFAULT_VEHTYPE" speedFactor="1.22" vaporized=""/>
    <tripinfo id="55" depart="68.00" departLane="1_0_0" departPos="5.10" departSpeed="8.59" departDelay="2.00" arrival="122.00" arrivalLane="3_1_0" arrivalPos="96.33" arrivalSpeed="16.46" duration="54.00" routeLength="207.83" waitingTime="17.00" waitingCount="2" stopTime="0.00" timeLoss="41.06" rerouteNo="0" devices="tripinfo_55" vType="DEFAULT_VEHTYPE" speedFactor="1.21" vaporized=""/>
    <tripinfo id="56" depart="69.00" departLane="1_0_0" departPos="5.10" departSpeed="3.05" departDelay="3.00" arrival="125.00" arrivalLane="3_1_0" arrivalPos="96.33" arrivalSpeed="13.66" duration="56.00" routeLength="207.83" waitingTime="17.00" waitingCount="2" stopTime="0.00" timeLoss="40.17" rerouteNo="0" devices="tripinfo_56" vType="DEFAULT_VEHTYPE" speedFactor="1.01" vaporized=""/>
    <tripinfo id="57" depart="72.00" departLane="1_0_0" departPos="5.10" departSpeed="3.05" departDelay="6.00" arrival="126.00" arrivalLane="3_1_0" arrivalPos="96.33" arrivalSpeed="13.36" duration="54.00" routeLength="207.83" waitingTime="17.00" waitingCount="2" stopTime="0.00" timeLoss="38.89" rerouteNo="0" devices="tripinfo_57" vType="DEFAULT_VEHTYPE" speedFactor="1.01" vaporized=""/>
    <tripinfo id="58" depart="82.00" departLane="1_0_0" departPos="5.10" departSpeed="2.87" departDelay="16.00" arrival="128.00" arrivalLane="3_1_0" arrivalPos="96.33" arrivalSpeed="12.97" duration="46.00" routeLength="207.83" waitingTime="13.00" waitingCount="1" stopTime="0.00" timeLoss="30.35" rerouteNo="0" devices="tripinfo_58" vType="DEFAULT_VEHTYPE" speedFactor="0.98" vaporized=""/>
    <tripinfo id="59" depart="85.00" departLane="1_0_0" departPos="5.10" departSpeed="2.04" departDelay="19.00" arrival="130.00" arrivalLane="3_1_0" arrivalPos="96.33" arrivalSpeed="15.03" duration="45.00" routeLength="207.83" waitingTime="14.00" waitingCount="1" stopTime="0.00" timeLoss="30.45" rerouteNo="0" devices="tripinfo_59" vType="DEFAULT_VEHTYPE" speedFactor="1.09" vaporized=""/>
    <tripinfo id="5" depart="11.00" departLane="4_0_0" departPos="5.10" departSpeed="9.06" departDelay="1.00" arrival="143.00" arrivalLane="2_1_0" arrivalPos="106.28" arrivalSpeed="14.01" duration="132.00" routeLength="212.66" waitingTime="100.00" waitingCount="2" stopTime="0.00" timeLoss="117.59" rerouteNo="0" devices="tripinfo_5" vType="DEFAULT_VEHTYPE" speedFactor="1.08" vaporized=""/>
    <tripinfo id="27" depart="52.00" departLane="2_0_0" departPos="5.10" departSpeed="14.82" departDelay="0.00" arrival="143.00" arrivalLane="3_1_0" arrivalPos="96.33" arrivalSpeed="13.91" duration="91.00" routeLength="206.64" waitingTime="66.00" waitingCount="2" stopTime="0.00" timeLoss="75.69" rerouteNo="0" devices="tripinfo_27" vType="DEFAULT_VEHTYPE" speedFactor="1.07" vaporized=""/>
    <tripinfo id="28" depart="53.00" departLane="2_0_0" departPos="5.10" departSpeed="12.18" departDelay="1.00" arrival="145.00" arrivalLane="3_1_0" arrivalPos="96.33" arrivalSpeed="13.68" duration="92.00" routeLength="206.64" waitingTime="66.00" waitingCount="2" stopTime="0.00" timeLoss="76.48" rerouteNo="0" devices="tripinfo_28" vType="DEFAULT_VEHTYPE" speedFactor="1.03" vaporized=""/>
    <tripinfo id="6" depart="12.00" departLane="4_0_0" departPos="5.10" departSpeed="4.94" departDelay="2.00" arrival="147.00" arrivalLane="2_1_0" arrivalPos="106.28" arrivalSpeed="10.89" duration="135.00" routeLength="212.66" waitingTime="99.00" waitingCount="2" stopTime="0.00" timeLoss="116.66" rerouteNo="0" devices="tripinfo_6" vType="DEFAULT_VEHTYPE" speedFactor="0.87" vaporized=""/>
    <tripinfo id="29" depart="54.00" departLane="2_0_0" departPos="5.10" departSpeed="9.25" departDelay="2.00" arrival="147.00" arrivalLane="3_1_0" arrivalPos="96.33" arrivalSpeed="15.31" duration="93.00" routeLength="206.64" waitingTime="63.00" waitingCount="2" stopTime="0.00" timeLoss="78.66" rerouteNo="0" devices="tripinfo_29" vType="DEFAULT_VEHTYPE" speedFactor="1.11" vaporized=""/>
    <tripinfo id="7" depart="14.00" departLane="4_0_0" departPos="5.10" departSpeed="4.84" departDelay="4.00" arrival="148.00" arrivalLane="2_1_0" arrivalPos="106.28" arrivalSpeed="13.13" duration="134.00" routeLength="212.66" waitingTime="97.00" waitingCount="2" stopTime="0.00" timeLoss="119.10" rerouteNo="0" devices="tripinfo_7" vType="DEFAULT_VEHTYPE" speedFactor="1.03" vaporized=""/>
    <tripinfo id="30" depart="55.00" departLane="2_0_0" departPos="5.10" departSpeed="5.07" departDelay="3.00" arrival="150.00" arrivalLane="3_1_0" arrivalPos="96.33" arrivalSpeed="13.75" duration="95.00" routeLength="206.64" waitingTime="62.00" waitingCount="2" stopTime="0.00" timeLoss="79.45" rerouteNo="0" devices="tripinfo_30" vType="DEFAULT_VEHTYPE" speedFactor="1.07" vaporized=""/>
    <tripinfo id="31" depart="57.00" departLane="2_0_0" departPos="5.10" departSpeed="4.56" departDelay="5.00" arrival="154.00" arrivalLane="3_1_0" arrivalPos="96.33" arrivalSpeed="11.65" duration="97.00" routeLength="206.64" waitingTime="61.00" waitingCount="2" stopTime="0.00" timeLoss="79.17" rerouteNo="0" devices="tripinfo_31" vType="DEFAULT_VEHTYPE" speedFactor="0.91" vaporized=""/>
    <tripinfo id="32" depart="59.00" departLane="2_0_0" departPos="5.10" departSpeed="5.12" departDelay="7.00" arrival="187.00" arrivalLane="3_1_0" arrivalPos="96.33" arrivalSpeed="14.15" duration="128.00" routeLength="206.64" waitingTime="89.00" waitingCount="2" stopTime="0.00" timeLoss="112.92" rerouteNo="0" devices="tripinfo_32" vType="DEFAULT_VEHTYPE" speedFactor="1.08" vaporized=""/>
    <tripinfo id="33" depart="61.00" departLane="2_0_0" departPos="5.10" departSpeed="3.36" departDelay="9.00" arrival="190.00" arrivalLane="3_1_0" arrivalPos="96.33" arrivalSpeed="13.06" duration="129.00" routeLength="206.64" waitingTime="88.00" waitingCount="2" stopTime="0.00" timeLoss="112.46" rerouteNo="0" devices="tripinfo_33" vType="DEFAULT_VEHTYPE" speedFactor="0.98" vaporized=""/>
    <tripinfo id="34" depart="63.00" departLane="2_0_0" departPos="5.10" departSpeed="0.81" departDelay="11.00" arrival="193.00" arrivalLane="3_1_0" arrivalPos="96.33" arrivalSpeed="13.09" duration="130.00" routeLength="206.64" waitingTime="87.00" waitingCount="2" stopTime="0.00" timeLoss="113.23" rerouteNo="0" devices="tripinfo_34" vType="DEFAULT_VEHTYPE" speedFactor="0.95" vaporized=""/>
    <tripinfo id="35" depart="67.00" departLane="2_0_0" departPos="5.10" departSpeed="5.31" departDelay="6.00" arrival="195.00" arrivalLane="4_1_0" arrivalPos="96.66" arrivalSpeed="13.76" duration="128.00" routeLength="212.38" waitingTime="84.00" waitingCount="2" stopTime="0.00" timeLoss="113.61" rerouteNo="0" devices="tripinfo_35" vType="DEFAULT_VEHTYPE" speedFactor="1.07" vaporized=""/>
    <tripinfo id="36" depart="69.00" departLane="2_0_0" departPos="5.10" departSpeed="6.25" departDelay="8.00" arrival="197.00" arrivalLane="4_1_0" arrivalPos="96.66" arrivalSpeed="13.39" duration="128.00" routeLength="212.38" waitingTime="83.00" waitingCount="2" stopTime="0.00" timeLoss="112.02" rerouteNo="0" devices="tripinfo_36" vType="DEFAULT_VEHTYPE" speedFactor="0.97" vaporized=""/>
    <tripinfo id="37" depart="71.00" departLane="2_0_0" departPos="5.10" departSpeed="6.63" departDelay="10.00" arrival="218.00" arrivalLane="4_1_0" arrivalPos="96.66" arrivalSpeed="11.26" duration="147.00" routeLength="212.38" waitingTime="97.00" waitingCount="3" stopTime="0.00" timeLoss="129.40" rerouteNo="0" devices="tripinfo_37" vType="DEFAULT_VEHTYPE" speedFactor="0.88" vaporized=""/>
    <tripinfo id="38" depart="73.00" departLane="2_0_0" departPos="5.10" departSpeed="5.82" departDelay="12.00" arrival="220.00" arrivalLane="4_1_0" arrivalPos="96.66" arrivalSpeed="11.66" duration="147.00" routeLength="212.38" waitingTime="95.00" waitingCount="3" stopTime="0.00" timeLoss="130.29" rerouteNo="0" devices="tripinfo_38" vType="DEFAULT_VEHTYPE" speedFactor="0.93" vaporized=""/>
    <tripinfo id="39" depart="75.00" departLane="2_0_0" departPos="5.10" departSpeed="1.37" departDelay="14.00" arrival="222.00" arrivalLane="4_1_0" arrivalPos="96.66" arrivalSpeed="14.79" duration="147.00" routeLength="212.38" waitingTime="94.00" waitingCount="3" stopTime="0.00" timeLoss="132.01" rerouteNo="0" devices="tripinfo_39" vType="DEFAULT_VEHTYPE" speedFactor="1.07" vaporized=""/>
    <tripinfo id="40" depart="81.00" departLane="2_0_0" departPos="5.10" departSpeed="0.07" departDelay="20.00" arrival="224.00" arrivalLane="4_1_0" arrivalPos="96.66" arrivalSpeed="13.27" duration="143.00" routeLength="212.38" waitingTime="93.00" waitingCount="4" stopTime="0.00" timeLoss="127.39" rerouteNo="0" devices="tripinfo_40" vType="DEFAULT_VEHTYPE" speedFactor="1.04" vaporized=""/>
    <tripinfo id="41" depart="149.00" departLane="2_0_0" departPos="5.10" departSpeed="0.09" departDelay="88.00" arrival="225.00" arrivalLane="4_1_0" arrivalPos="96.66" arrivalSpeed="14.08" duration="76.00" routeLength="212.38" waitingTime="37.00" waitingCount="3" stopTime="0.00" timeLoss="61.91" rerouteNo="0" devices="tripinfo_41" vType="DEFAULT_VEHTYPE" speedFactor="1.10" vaporized=""/>
    <tripinfo id="42" depart="153.00" departLane="2_0_0" departPos="5.10" departSpeed="5.51" departDelay="92.00" arrival="228.00" arrivalLane="4_1_0" arrivalPos="96.66" arrivalSpeed="12.71" duration="75.00" routeLength="212.38" waitingTime="34.00" waitingCount="3" stopTime="0.00" timeLoss="58.04" rerouteNo="0" devices="tripinfo_42" vType="DEFAULT_VEHTYPE" speedFactor="0.94" vaporized=""/>
    <tripinfo id="43" depart="155.00" departLane="2_0_0" departPos="5.10" departSpeed="5.46" departDelay="94.00" arrival="253.00" arrivalLane="4_1_0" arrivalPos="96.66" arrivalSpeed="13.71" duration="98.00" routeLength="212.38" waitingTime="52.00" waitingCount="3" stopTime="0.00" timeLoss="83.28" rerouteNo="0" devices="tripinfo_43" vType="DEFAULT_VEHTYPE" speedFactor="1.05" vaporized=""/>
    <tripinfo id="60" depart="312.00" departLane="3_0_0" departPos="5.10" departSpeed="15.88" departDelay="0.00" arrival="332.00" arrivalLane="4_1_0" arrivalPos="96.66" arrivalSpeed="14.73" duration="20.00" routeLength="196.93" waitingTime="0.00" waitingCount="0" stopTime="0.00" timeLoss="6.46" rerouteNo="0" devices="tripinfo_60" vType="DEFAULT_VEHTYPE" speedFactor="1.14" vaporized=""/>
    <tripinfo id="61" depart="315.00" departLane="3_0_0" departPos="5.10" departSpeed="17.20" departDelay="0.00" arrival="334.00" arrivalLane="2_1_0" arrivalPos="106.28" arrivalSpeed="17.09" duration="19.00" routeLength="211.90" waitingTime="0.00" waitingCount="0" stopTime="0.00" timeLoss="6.12" rerouteNo="0" devices="tripinfo_61" vType="DEFAULT_VEHTYPE" speedFactor="1.24" vaporized=""/>
    <tripinfo id="62" depart="316.00" departLane="3_0_0" departPos="5.10" departSpeed="11.87" departDelay="1.00" arrival="340.00" arrivalLane="2_1_0" arrivalPos="106.28" arrivalSpeed="10.77" duration="24.00" routeLength="211.90" waitingTime="0.00" waitingCount="0" stopTime="0.00" timeLoss="5.04" rerouteNo="0" devices="tripinfo_62" vType="DEFAULT_VEHTYPE" speedFactor="0.85" vaporized=""/>
    <tripinfo id="63" depart="317.00" departLane="3_0_0" departPos="5.10" departSpeed="8.73" departDelay="2.00" arrival="342.00" arrivalLane="2_1_0" arrivalPos="106.28" arrivalSpeed="11.77" duration="25.00" routeLength="211.90" waitingTime="0.00" waitingCount="0" stopTime="0.00" timeLoss="6.67" rerouteNo="0" devices="tripinfo_63" vType="DEFAULT_VEHTYPE" speedFactor="0.89" vaporized=""/>
    <tripinfo id="64" depart="318.00" departLane="3_0_0" departPos="5.10" departSpeed="4.18" departDelay="3.00" arrival="344.00" arrivalLane="2_1_0" arrivalPos="106.28" arrivalSpeed="14.26" duration="26.00" routeLength="211.90" waitingTime="0.00" waitingCount="0" stopTime="0.00" timeLoss="10.05" rerouteNo="0" devices="tripinfo_64" vType="DEFAULT_VEHTYPE" speedFactor="1.04" vaporized=""/>
    <tripinfo id="65" depart="320.00" departLane="3_0_0" departPos="5.10" departSpeed="1.48" departDelay="5.00" arrival="346.00" arrivalLane="2_1_0" arrivalPos="106.28" arrivalSpeed="16.80" duration="26.00" routeLength="211.90" waitingTime="0.00" waitingCount="0" stopTime="0.00" timeLoss="12.46" rerouteNo="0" devices="tripinfo_65" vType="DEFAULT_VEHTYPE" speedFactor="1.22" vaporized=""/>
    <tripinfo id="66" depart="324.00" departLane="3_0_0" departPos="5.10" departSpeed="5.78" departDelay="9.00" arrival="347.00" arrivalLane="2_1_0" arrivalPos="106.28" arrivalSpeed="17.73" duration="23.00" routeLength="211.90" waitingTime="0.00" waitingCount="0" stopTime="0.00" timeLoss="10.78" rerouteNo="0" devices="tripinfo_66" vType="DEFAULT_VEHTYPE" speedFactor="1.29" vaporized=""/>
    <tripinfo id="67" depart="326.00" departLane="3_0_0" departPos="5.10" departSpeed="5.93" departDelay="11.00" arrival="351.00" arrivalLane="2_1_0" arrivalPos="106.28" arrivalSpeed="15.80" duration="25.00" routeLength="211.90" waitingTime="0.00" waitingCount="0" stopTime="0.00" timeLoss="10.84" rerouteNo="0" devices="tripinfo_67" vType="DEFAULT_VEHTYPE" speedFactor="1.14" vaporized=""/>
    <tripinfo id="68" depart="328.00" departLane="3_0_0" departPos="5.10" departSpeed="6.14" departDelay="13.00" arrival="353.00" arrivalLane="2_1_0" arrivalPos="106.28" arrivalSpeed="14.23" duration="25.00" routeLength="211.90" waitingTime="0.00" waitingCount="0" stopTime="0.00" timeLoss="9.90" rerouteNo="0" devices="tripinfo_68" vType="DEFAULT_VEHTYPE" speedFactor="1.06" vaporized=""/>
    <tripinfo id="69" depart="330.00" departLane="3_0_0" departPos="5.10" departSpeed="5.46" departDelay="15.00" arrival="358.00" arrivalLane="2_1_0" arrivalPos="106.28" arrivalSpeed="12.88" duration="28.00" routeLength="211.90" waitingTime="0.00" waitingCount="0" stopTime="0.00" timeLoss="10.56" rerouteNo="0" devices="tripinfo_69" vType="DEFAULT_VEHTYPE" speedFactor="0.95" vaporized=""/>
    <tripinfo id="70" depart="332.00" departLane="3_0_0" departPos="5.10" departSpeed="5.82" departDelay="17.00" arrival="360.00" arrivalLane="2_1_0" arrivalPos="106.28" arrivalSpeed="11.83" duration="28.00" routeLength="211.90" waitingTime="0.00" waitingCount="0" stopTime="0.00" timeLoss="10.29" rerouteNo="0" devices="tripinfo_70" vType="DEFAULT_VEHTYPE" speedFactor="0.93" vaporized=""/>
    <tripinfo id="71" depart="334.00" departLane="3_0_0" departPos="5.10" departSpeed="5.43" departDelay="19.00" arrival="362.00" arrivalLane="2_1_0" arrivalPos="106.28" arrivalSpeed="14.89" duration="28.00" routeLength="211.90" waitingTime="0.00" waitingCount="0" stopTime="0.00" timeLoss="12.75" rerouteNo="0" devices="tripinfo_71" vType="DEFAULT_VEHTYPE" speedFactor="1.08" vaporized=""/>
    <tripinfo id="77" depart="336.00" departLane="3_0_0" departPos="5.10" departSpeed="1.05" departDelay="13.00" arrival="363.00" arrivalLane="1_1_0" arrivalPos="102.05" arrivalSpeed="12.76" duration="27.00" routeLength="207.89" waitingTime="0.00" waitingCount="0" stopTime="0.00" timeLoss="10.99" rerouteNo="0" devices="tripinfo_77" vType="DEFAULT_VEHTYPE" speedFactor="0.97" vaporized=""/>
    <tripinfo id="78" depart="339.00" departLane="3_0_0" departPos="5.10" departSpeed="1.46" departDelay="16.00" arrival="365.00" arrivalLane="1_1_0" arrivalPos="102.05" arrivalSpeed="13.71" duration="26.00" routeLength="207.89" waitingTime="0.00" waitingCount="0" stopTime="0.00" timeLoss="9.97" rerouteNo="0" devices="tripinfo_78" vType="DEFAULT_VEHTYPE" speedFactor="0.99" vaporized=""/>